# vtk DataFile Version 3.0
vtk output
ASCII
DATASET POLYDATA
POINTS 4227 double
-17.4848 14.682 -0.47264 -17.5152 14.6867 -0.366785 -17.8556 14.7602 0.540614 
-18.203 14.8368 1.44465 -18.5567 14.9488 2.35986 -18.6971 15.0169 3.13838 
-18.3123 14.8599 3.80889 -17.8205 14.6401 4.58989 -17.1418 14.2786 5.22798 
-16.3159 13.8758 5.62166 -15.4333 13.4706 5.84932 -14.5035 13.1214 5.92892 
-13.576 12.7533 5.84827 -12.7409 12.2464 5.68802 -11.9255 11.7377 5.40921 
-11.1107 11.2618 5.07711 -10.2652 10.7677 4.87847 -9.40814 10.2931 4.67817 
-8.5192 9.84444 4.58621 -7.66967 9.39215 4.31519 -6.84969 8.96019 3.94123 
-6.05264 8.53099 3.51631 -5.3821 8.08594 2.9273 -4.72248 7.60018 2.35625 
-4.11276 7.06014 1.79029 -3.57442 6.44783 1.22828 -2.97168 5.76748 0.8583 
-2.49189 4.96541 0.59733 -2.0355 4.14357 0.308202 -1.65405 3.30566 -0.032263 
-1.34207 2.57281 -0.623308 -1.05796 1.90729 -1.30409 -0.793177 1.24052 -1.98657 
-0.517719 0.562438 -2.66235 -0.517719 0.562438 -2.66235 -0.223461 -0.120872 -3.32066 
0.0705013 -0.814626 -3.96569 0.442148 -1.4867 -4.60466 0.818671 -2.16102 -5.23056 
1.20235 -2.84391 -5.84215 1.20235 -2.84391 -5.84215 1.64891 -3.51028 -6.4389 
2.16405 -4.17447 -6.97793 2.16405 -4.17447 -6.97793 2.71988 -4.8606 -7.43845 
3.33097 -5.51887 -7.87793 3.33097 -5.51887 -7.87793 4.017 -6.18265 -8.16797 
4.72017 -6.84777 -8.40584 4.72017 -6.84777 -8.40584 5.41855 -7.51006 -8.66398 
6.09411 -8.16358 -9.00353 6.09411 -8.16358 -9.00353 6.7876 -8.75893 -9.4095 
7.40306 -9.31249 -9.96717 7.94319 -9.83398 -10.6233 7.94319 -9.83398 -10.6233 
8.50388 -10.3702 -11.2486 9.21439 -10.8946 -11.7178 9.99556 -11.4555 -11.9835 
10.7565 -12.0214 -12.2886 11.5147 -12.589 -12.6003 11.5147 -12.589 -12.6003 
12.2145 -13.1226 -13.0692 12.8701 -13.6296 -13.623 13.5174 -14.1324 -14.1901 
14.1302 -14.6131 -14.8119 14.1302 -14.6131 -14.8119 14.7366 -15.0897 -15.4426 
15.3815 -15.5294 -16.068 16.0181 -15.9742 -16.6897 16.0181 -15.9742 -16.6897 
16.6613 -16.445 -17.2854 17.3627 -17.0101 -17.7096 18.0796 -17.6077 -18.0552 
18.0796 -17.6077 -18.0552 18.789 -18.1987 -18.4245 19.5172 -18.7662 -18.8097 
20.2621 -19.2887 -19.2199 20.8183 -19.6218 -19.9745 20.8183 -19.6218 -19.9745 
21.5434 -19.9809 -20.5625 21.5434 -19.9809 -20.5625 22.3639 -20.3682 -20.9812 
23.1869 -20.7598 -21.3847 24.0345 -21.13 -21.7652 24.874 -21.4575 -22.1954 
24.874 -21.4575 -22.1954 25.7177 -21.6583 -22.6913 26.4088 -21.746 -23.4075 
27.2576 -21.9239 -23.9016 28.1242 -22.0836 -24.3742 29.0093 -22.2442 -24.8085 
29.0093 -22.2442 -24.8085 29.9065 -22.4208 -25.2085 30.824 -22.5281 -25.5912 
31.7358 -22.618 -25.9891 32.6171 -22.6262 -26.4615 33.4887 -22.6261 -26.9496 
33.4887 -22.6261 -26.9496 34.2933 -22.6021 -27.5405 35.0818 -22.5731 -28.1521 
35.9172 -22.5243 -28.7009 36.8039 -22.3811 -29.1324 36.8039 -22.3811 -29.1324 
37.7564 -22.2483 -29.4064 38.7098 -22.1173 -29.6747 38.7098 -22.1173 -29.6747 
39.6762 -22.0009 -29.8983 40.6568 -21.8532 -30.0116 41.5049 -21.4038 -30.0796 
42.3451 -20.9373 -30.3558 43.126 -20.4759 -30.7768 43.8935 -19.9786 -31.1665 
44.6695 -19.4183 -31.2836 45.2707 -18.7813 -31.1388 46.19 -18.2693 -31.1487 
46.19 -18.2693 -31.1487 45.8415 -18.0271 -30.8269 46.373 -17.2867 -30.4096 
46.7985 -16.5653 -29.8719 47.2355 -15.8005 -29.4343 47.6325 -14.993 -28.9989 
47.6325 -14.993 -28.9989 47.9722 -14.159 -28.5486 48.2037 -13.2414 -28.2298 
48.4333 -12.3246 -27.9399 48.6149 -11.3793 -27.634 48.6149 -11.3793 -27.634 
48.5672 -10.4824 -27.2352 48.3623 -9.60359 -26.8081 48.3623 -9.60359 -26.8081 
48.1759 -8.75704 -26.3331 48.1086 -7.90883 -25.8435 48.1246 -7.6765 -25.7128 
48.1246 -7.6765 -25.7128 48.0687 -7.40616 -25.5532 48.0687 -7.40616 -25.5532 
48.0404 -7.04915 -25.347 47.9191 -6.21624 -24.8023 47.9191 -6.21624 -24.8023 
47.7124 -5.40761 -24.2515 47.6046 -4.5958 -23.7478 47.6086 -3.69928 -23.3656 
47.6069 -3.4773 -23.3064 47.6069 -3.4773 -23.3064 47.5214 -2.73386 -23.0969 
47.4439 -2.35986 -23.0177 47.4439 -2.35986 -23.0177 47.2637 -1.79214 -22.8851 
47.016 -0.86123 -22.663 47.016 -0.86123 -22.663 46.8543 0.0839641 -22.4362 
46.8092 0.90185 -21.8722 46.6686 1.72875 -21.3227 46.5002 2.24252 -20.9844 
46.5002 2.24252 -20.9844 46.4652 2.55135 -20.795 46.1506 3.34133 -20.2715 
46.1391 3.36485 -20.26 46.1391 3.36485 -20.26 45.7599 4.17007 -19.8714 
45.4002 5.07347 -19.6972 45.0495 5.99406 -19.5528 44.6672 6.90221 -19.3734 
44.6672 6.90221 -19.3734 44.2672 7.79431 -19.1723 43.7611 8.62009 -18.9331 
43.3264 9.34892 -18.4053 42.9968 10.1052 -17.8831 42.9968 10.1052 -17.8831 
42.6571 10.897 -17.3754 42.2892 11.6685 -16.8571 41.8996 12.4466 -16.3576 
41.5573 13.324 -16.0563 41.5573 13.324 -16.0563 41.1639 14.2368 -15.9707 
40.8437 15.0763 -15.5713 40.6921 15.9462 -15.1706 40.5188 16.8396 -14.7358 
40.5188 16.8396 -14.7358 40.3861 17.7199 -14.3247 40.2975 18.6205 -13.9345 
40.2975 18.6205 -13.9345 40.2013 19.5398 -13.5397 39.9851 20.43 -13.1387 
39.7407 21.3182 -12.7518 39.3898 22.1693 -12.3626 38.9284 23.0048 -12.0646 
38.4215 23.8593 -11.9342 37.8585 24.6709 -11.7784 37.2988 25.4779 -11.5977 
36.7171 26.2768 -11.4465 36.1185 27.0554 -11.2572 35.5262 27.8299 -11.0577 
35.1103 28.5467 -10.512 34.6864 29.2732 -9.97542 34.2879 30.0346 -9.48113 
33.8983 30.8134 -8.99906 33.4666 31.6266 -8.61765 32.9727 32.4552 -8.35963 
32.464 33.2836 -8.13728 31.9405 34.1162 -7.97612 31.9405 34.1162 -7.97612 
31.3375 34.904 -7.85062 30.7453 35.673 -7.61543 30.198 36.4434 -7.30137 
29.6085 37.1501 -6.91049 29.0473 37.8357 -6.44977 28.547 38.5318 -5.95269 
28.0066 39.217 -5.46507 27.4445 39.904 -5.00778 26.8093 40.5917 -4.65638 
26.1274 41.3125 -4.58229 25.4447 42.0357 -4.50661 24.7681 42.7615 -4.40532 
24.164 43.4877 -4.08927 23.5964 44.2171 -3.71836 23.066 44.9411 -3.29252 
22.5784 45.6704 -2.80282 21.9997 46.3335 -2.33088 21.3167 46.9781 -1.98804 
20.624 47.6926 -1.91523 19.8879 48.3376 -1.70871 19.1502 48.8215 -1.23793 
18.4148 49.2939 -0.753834 17.689 49.7517 -0.242435 16.8995 50.1307 0.236497 
16.0764 50.5657 0.600505 15.2535 51.0004 0.965225 14.4182 51.46 1.26644 
13.5458 51.8492 1.52785 12.6119 52.1771 1.6173 -0.517719 0.562438 -2.66235 
-0.0950947 -0.313098 -2.89656 0.42681 -1.16162 -2.93389 0.42681 -1.16162 -2.93389 
0.957 -2.00804 -2.92755 1.62098 -2.73326 -2.94024 1.59482 -2.85909 -2.85154 
1.59482 -2.85909 -2.85154 2.31494 -3.44617 -3.01246 2.97675 -4.11434 -3.34881 
3.66157 -4.75061 -3.69984 4.33607 -5.37687 -4.09114 4.97581 -6.00131 -4.53927 
5.611 -6.63069 -4.98689 6.22998 -7.25383 -5.46496 6.84017 -7.85898 -5.97631 
7.5055 -8.48977 -6.37553 7.89506 -8.82263 -6.47762 7.89506 -8.82263 -6.47762 
8.251 -9.12684 -6.57089 9.04325 -9.73539 -6.61131 9.04325 -9.73539 -6.61131 
9.24167 -9.92682 -6.61685 9.24167 -9.92682 -6.61685 9.79565 -10.388 -6.63814 
10.5449 -11.0502 -6.66302 11.2746 -11.6779 -6.93194 11.2746 -11.6779 -6.93194 
11.9126 -12.2614 -7.43451 12.5651 -12.8648 -7.89234 13.2107 -13.4843 -8.33851 
13.2107 -13.4843 -8.33851 13.9456 -14.1478 -8.47951 14.6918 -14.8033 -8.59263 
15.4263 -15.4459 -8.79 16.1581 -16.0898 -8.98803 16.8824 -16.73 -9.2241 
17.6314 -17.3727 -9.3751 18.4561 -17.9374 -9.4041 18.4561 -17.9374 -9.4041 
19.2845 -18.4735 -9.27487 20.0868 -18.9713 -8.96414 20.6597 -19.289 -8.20107 
21.0201 -19.3456 -7.27 21.1804 -19.2877 -6.28917 21.1804 -19.2877 -6.28917 
21.1696 -19.1376 -5.30485 21.0457 -18.9552 -4.34075 20.8948 -18.8032 -3.37349 
20.8948 -18.8032 -3.37349 20.7403 -18.623 -2.39822 20.5921 -18.3564 -1.44652 
20.3968 -18.1173 -0.517007 20.3968 -18.1173 -0.517007 20.0207 -17.9005 0.365217 
19.371 -17.5514 1.04147 18.7287 -17.1798 1.5938 18.7287 -17.1798 1.5938 
18.6784 -17.1507 1.63699 17.9633 -16.7608 2.19865 17.9633 -16.7608 2.19865 
17.2369 -16.3962 2.7647 16.6108 -15.9797 3.42375 16.0618 -15.5761 4.16094 
16.0618 -15.5761 4.16094 15.5848 -15.1114 4.90685 15.4351 -15.0986 5.04021 
15.4351 -15.0986 5.04021 15.068 -14.6289 5.60891 14.5526 -14.0669 6.25915 
14.1307 -13.3682 6.82694 13.6496 -12.6456 7.32165 13.1835 -11.8553 7.70007 
12.649 -11.0189 7.77807 12.1539 -10.1648 7.93711 11.707 -9.29655 8.12676 
11.4366 -8.36456 8.30678 11.2768 -7.43829 8.64639 11.1043 -6.509 8.97041 
10.8985 -5.58375 9.28884 10.6979 -4.66286 9.6214 10.5107 -3.75182 9.99668 
10.145 -2.88424 10.3192 9.67319 -2.01412 10.4629 9.181 -1.16566 10.6473 
8.64024 -0.342538 10.8155 8.64024 -0.342538 10.8155 8.18538 0.48317 11.149 
7.77558 1.30102 11.5516 7.40355 2.05471 12.0833 7.03936 2.81126 12.6256 
6.69078 3.61242 13.1061 6.20143 4.38552 13.4892 5.63659 5.03977 13.9579 
5.63659 5.03977 13.9579 5.03396 5.69306 14.4128 4.36694 6.28958 14.8402 
3.71105 6.87044 15.3111 3.15568 7.50118 15.8483 2.64127 8.20773 16.3319 
2.16067 8.94853 16.8008 1.78411 9.76926 17.1564 1.59862 10.6881 17.4598 
1.46089 11.632 17.7525 1.30885 12.5845 18.0072 1.1795 13.5418 18.2477 
1.07981 14.5095 18.4616 0.820033 15.4422 18.6901 0.47787 16.3717 18.8204 
0.0120484 17.2405 18.9591 -0.46563 18.1012 19.1344 -0.953202 18.9418 19.3599 
-1.459 19.7637 19.6192 -1.84688 20.6406 19.8908 -2.10651 21.5335 20.2563 
-2.31932 22.4226 20.6607 -2.52104 23.3391 20.957 -2.92056 24.2347 21.1202 
-3.4878 24.9937 21.3869 -0.517719 0.562438 -2.66235 -0.678857 0.726274 -3.63551 
-0.865328 0.911764 -4.60017 -1.05292 1.1658 -5.54861 -1.26452 1.4791 -6.47438 
-1.45156 1.84637 -7.38329 -1.62819 2.24993 -8.28069 -1.82007 2.65169 -9.17776 
-1.82007 2.65169 -9.17776 -1.88836 3.04936 -10.0864 -1.76588 3.06579 -11.0787 
-1.67242 3.12473 -12.0725 -1.58122 3.30575 -13.0472 -1.4567 3.60978 -13.9872 
-1.41101 4.10174 -14.8566 -1.37833 4.61908 -15.7118 -1.37833 4.61908 -15.7118 
-1.36859 5.10706 -16.5835 -1.28495 5.49872 -17.4998 -1.01482 5.78997 -18.412 
-0.730699 6.04394 -19.3365 -0.644925 6.08013 -19.6891 -0.644925 6.08013 -19.6891 
-0.412735 6.17306 -20.2753 -0.0964235 6.2894 -21.2168 -0.0964235 6.2894 -21.2168 
0.156091 6.56907 -22.143 0.258943 7.16425 -22.9396 0.211328 7.9906 -23.4998 
[...]
POINT_DATA 4227
FIELD FieldData 1
previousPts 3 4227 double
-17.4848 14.682 -0.47264 -17.4848 14.682 -0.47264 -17.5152 14.6867 -0.366785 
-17.8556 14.7602 0.540614 -18.203 14.8368 1.44465 -18.5567 14.9488 2.35986 
-18.6971 15.0169 3.13838 -18.3123 14.8599 3.80889 -17.8205 14.6401 4.58989 
-17.1418 14.2786 5.22798 -16.3159 13.8758 5.62166 -15.4333 13.4706 5.84932 
-14.5035 13.1214 5.92892 -13.576 12.7533 5.84827 -12.7409 12.2464 5.68802 
-11.9255 11.7377 5.40921 -11.1107 11.2618 5.07711 -10.2652 10.7677 4.87847 
-9.40814 10.2931 4.67817 -8.5192 9.84444 4.58621 -7.66967 9.39215 4.31519 
-6.84969 8.96019 3.94123 -6.05264 8.53099 3.51631 -5.3821 8.08594 2.9273 
-4.72248 7.60018 2.35625 -4.11276 7.06014 1.79029 -3.57442 6.44783 1.22828 
-2.97168 5.76748 0.8583 -2.49189 4.96541 0.59733 -2.0355 4.14357 0.308202 
-1.65405 3.30566 -0.032263 -1.34207 2.57281 -0.623308 -1.05796 1.90729 -1.30409 
-0.793177 1.24052 -1.98657 -0.793177 1.24052 -1.98657 -0.517719 0.562438 -2.66235 
-0.223461 -0.120872 -3.32066 0.0705013 -0.814626 -3.96569 0.442148 -1.4867 -4.60466 
0.818671 -2.16102 -5.23056 0.818671 -2.16102 -5.23056 1.20235 -2.84391 -5.84215 
1.64891 -3.51028 -6.4389 1.64891 -3.51028 -6.4389 2.16405 -4.17447 -6.97793 
2.71988 -4.8606 -7.43845 2.71988 -4.8606 -7.43845 3.33097 -5.51887 -7.87793 
4.017 -6.18265 -8.16797 4.017 -6.18265 -8.16797 4.72017 -6.84777 -8.40584 
5.41855 -7.51006 -8.66398 5.41855 -7.51006 -8.66398 6.09411 -8.16359 -9.00353 
6.7876 -8.75893 -9.4095 7.40306 -9.31249 -9.96717 7.40306 -9.31249 -9.96717 
7.94319 -9.83398 -10.6233 8.50388 -10.3702 -11.2486 9.21439 -10.8946 -11.7178 
9.99556 -11.4555 -11.9835 10.7565 -12.0214 -12.2886 10.7565 -12.0214 -12.2886 
11.5147 -12.589 -12.6003 12.2145 -13.1226 -13.0692 12.8701 -13.6296 -13.623 
13.5174 -14.1324 -14.1901 13.5174 -14.1324 -14.1901 14.1302 -14.6131 -14.8119 
14.7366 -15.0897 -15.4426 15.3815 -15.5293 -16.068 15.3815 -15.5293 -16.068 
16.0181 -15.9742 -16.6897 16.6613 -16.445 -17.2854 17.3627 -17.0101 -17.7096 
17.3627 -17.0101 -17.7096 18.0796 -17.6077 -18.0552 18.789 -18.1987 -18.4245 
19.5172 -18.7662 -18.8097 20.2621 -19.2887 -19.2199 20.2621 -19.2887 -19.2199 
20.8183 -19.6218 -19.9745 20.8183 -19.6218 -19.9745 21.5434 -19.9809 -20.5625 
22.3639 -20.3682 -20.9812 23.1869 -20.7598 -21.3847 24.0345 -21.13 -21.7652 
24.0345 -21.13 -21.7652 24.874 -21.4575 -22.1954 25.7177 -21.6583 -22.6913 
26.4088 -21.746 -23.4075 27.2576 -21.9239 -23.9016 28.1242 -22.0836 -24.3742 
28.1242 -22.0836 -24.3742 29.0093 -22.2442 -24.8085 29.9065 -22.4208 -25.2085 
30.824 -22.5281 -25.5912 31.7358 -22.618 -25.9891 32.6171 -22.6262 -26.4615 
32.6171 -22.6262 -26.4615 33.4887 -22.6261 -26.9496 34.2933 -22.6021 -27.5405 
35.0818 -22.5731 -28.1521 35.9172 -22.5243 -28.7009 35.9172 -22.5243 -28.7009 
36.8039 -22.3811 -29.1324 37.7564 -22.2483 -29.4064 37.7564 -22.2483 -29.4064 
38.7098 -22.1173 -29.6747 39.6762 -22.0009 -29.8983 40.6568 -21.8532 -30.0116 
41.5049 -21.4038 -30.0796 42.3451 -20.9373 -30.3558 43.126 -20.4759 -30.7768 
43.8935 -19.9786 -31.1665 44.6695 -19.4183 -31.2836 45.2707 -18.7813 -31.1388 
46.19 -18.2693 -31.1487 46.19 -18.2693 -31.1487 45.8415 -18.0271 -30.8269 
46.373 -17.2867 -30.4096 46.7986 -16.5653 -29.8719 47.2355 -15.8005 -29.4343 
47.2355 -15.8005 -29.4343 47.6325 -14.993 -28.9989 47.9722 -14.159 -28.5486 
48.2037 -13.2414 -28.2298 48.4333 -12.3246 -27.9399 48.4333 -12.3246 -27.9399 
48.6149 -11.3793 -27.634 48.5672 -10.4824 -27.2352 48.5672 -10.4824 -27.2352 
48.3623 -9.60359 -26.8081 48.1759 -8.75704 -26.3331 48.1086 -7.90883 -25.8435 
48.1246 -7.6765 -25.7128 48.1246 -7.6765 -25.7128 48.0687 -7.40616 -25.5532 
48.0687 -7.40616 -25.5532 48.0404 -7.04915 -25.347 48.0404 -7.04915 -25.347 
47.9191 -6.21624 -24.8023 47.7124 -5.40761 -24.2515 47.6046 -4.5958 -23.7478 
47.6086 -3.69928 -23.3656 47.6069 -3.4773 -23.3065 47.6069 -3.4773 -23.3065 
47.5214 -2.73386 -23.0969 47.4439 -2.35986 -23.0177 47.4439 -2.35986 -23.0177 
47.2637 -1.79214 -22.8851 47.2637 -1.79214 -22.8851 47.016 -0.86123 -22.663 
46.8543 0.0839641 -22.4362 46.8092 0.90185 -21.8722 46.6686 1.72875 -21.3227 
46.5002 2.24252 -20.9844 46.5002 2.24252 -20.9844 46.4652 2.55135 -20.795 
46.1506 3.34133 -20.2715 46.1391 3.36485 -20.26 46.1391 3.36485 -20.26 
45.7599 4.17007 -19.8714 45.4002 5.07347 -19.6972 45.0495 5.99406 -19.5528 
45.0495 5.99406 -19.5528 44.6672 6.90221 -19.3734 44.2672 7.79431 -19.1723 
43.7611 8.62009 -18.9331 43.3264 9.34892 -18.4053 43.3264 9.34892 -18.4053 
42.9968 10.1052 -17.8831 42.6571 10.897 -17.3754 42.2892 11.6685 -16.8571 
41.8996 12.4466 -16.3576 41.8996 12.4466 -16.3576 41.5573 13.324 -16.0563 
41.1639 14.2368 -15.9707 40.8437 15.0763 -15.5713 40.6921 15.9462 -15.1706 
40.6921 15.9462 -15.1706 40.5188 16.8396 -14.7358 40.3861 17.7199 -14.3247 
40.3861 17.7199 -14.3247 40.2975 18.6205 -13.9345 40.2013 19.5398 -13.5397 
39.9851 20.43 -13.1387 39.7407 21.3182 -12.7518 39.3898 22.1693 -12.3626 
38.9284 23.0048 -12.0646 38.4215 23.8593 -11.9342 37.8585 24.6709 -11.7784 
37.2988 25.4779 -11.5977 36.7171 26.2768 -11.4465 36.1185 27.0554 -11.2572 
35.5262 27.8299 -11.0577 35.1103 28.5467 -10.512 34.6864 29.2732 -9.97542 
34.2879 30.0346 -9.48113 33.8983 30.8134 -8.99906 33.4666 31.6266 -8.61765 
32.9727 32.4552 -8.35963 32.464 33.2836 -8.13728 32.464 33.2836 -8.13728 
31.9405 34.1162 -7.97612 31.3375 34.904 -7.85062 30.7453 35.673 -7.61543 
30.198 36.4434 -7.30137 29.6085 37.1501 -6.91049 29.0473 37.8357 -6.44977 
28.547 38.5318 -5.95269 28.0066 39.217 -5.46507 27.4444 39.904 -5.00778 
26.8093 40.5917 -4.65638 26.1274 41.3125 -4.58229 25.4447 42.0357 -4.50661 
24.7681 42.7615 -4.40532 24.164 43.4877 -4.08927 23.5964 44.2171 -3.71836 
23.066 44.9411 -3.29252 22.5784 45.6704 -2.80282 21.9997 46.3335 -2.33088 
21.3167 46.978 -1.98804 20.624 47.6926 -1.91523 19.8879 48.3376 -1.70871 
19.1502 48.8215 -1.23793 18.4148 49.2939 -0.753834 17.689 49.7517 -0.242435 
16.8995 50.1307 0.236497 16.0764 50.5657 0.600505 15.2535 51.0004 0.965225 
14.4182 51.46 1.26644 13.5458 51.8492 1.52785 -0.517719 0.562438 -2.66235 
-0.517719 0.562438 -2.66235 -0.0950947 -0.313098 -2.89656 -0.0950947 -0.313098 -2.89656 
0.42681 -1.16162 -2.93389 0.957 -2.00804 -2.92755 1.62098 -2.73326 -2.94024 
1.59482 -2.85909 -2.85154 1.59482 -2.85909 -2.85154 2.31494 -3.44617 -3.01246 
2.97675 -4.11434 -3.34881 3.66157 -4.75061 -3.69984 4.33607 -5.37687 -4.09114 
4.97581 -6.00131 -4.53927 5.611 -6.63069 -4.98689 6.22998 -7.25383 -5.46496 
6.84017 -7.85898 -5.97631 7.5055 -8.48977 -6.37553 7.89506 -8.82263 -6.47762 
7.89506 -8.82263 -6.47762 8.251 -9.12684 -6.57089 8.251 -9.12684 -6.57089 
9.04325 -9.73539 -6.61131 9.24167 -9.92682 -6.61685 9.24167 -9.92682 -6.61685 
9.79565 -10.388 -6.63814 10.5449 -11.0502 -6.66302 10.5449 -11.0502 -6.66302 
11.2746 -11.6779 -6.93194 11.9126 -12.2614 -7.43451 12.5651 -12.8648 -7.89235 
12.5651 -12.8648 -7.89235 13.2107 -13.4843 -8.33851 13.9456 -14.1478 -8.47951 
14.6918 -14.8033 -8.59263 15.4263 -15.4459 -8.79 16.1581 -16.0898 -8.98803 
16.8824 -16.73 -9.22409 17.6314 -17.3727 -9.3751 17.6314 -17.3727 -9.3751 
18.4561 -17.9374 -9.4041 19.2845 -18.4735 -9.27487 20.0868 -18.9713 -8.96414 
20.6597 -19.289 -8.20107 21.0201 -19.3456 -7.27 21.0201 -19.3456 -7.27 
21.1804 -19.2877 -6.28917 21.1696 -19.1376 -5.30485 21.0457 -18.9552 -4.34075 
21.0457 -18.9552 -4.34075 20.8948 -18.8032 -3.37349 20.7403 -18.623 -2.39822 
20.5921 -18.3564 -1.44652 20.5921 -18.3564 -1.44652 20.3968 -18.1173 -0.517007 
20.0207 -17.9005 0.365217 19.371 -17.5514 1.04147 18.7287 -17.1798 1.5938 
18.7287 -17.1798 1.5938 18.6784 -17.1507 1.63699 18.6784 -17.1507 1.63699 
17.9633 -16.7608 2.19865 17.2369 -16.3962 2.7647 16.6108 -15.9797 3.42375 
16.6108 -15.9797 3.42375 16.0618 -15.5761 4.16094 15.5848 -15.1114 4.90685 
15.4351 -15.0986 5.04021 15.4351 -15.0986 5.04021 15.068 -14.6289 5.60891 
14.5526 -14.0669 6.25915 14.1307 -13.3682 6.82694 13.6496 -12.6456 7.32165 
13.1835 -11.8553 7.70007 12.649 -11.0189 7.77807 12.1539 -10.1648 7.93711 
11.707 -9.29655 8.12676 11.4366 -8.36456 8.30678 11.2768 -7.43829 8.64639 
11.1043 -6.509 8.97041 10.8985 -5.58375 9.28884 10.6979 -4.66286 9.6214 
10.5107 -3.75182 9.99668 10.145 -2.88424 10.3192 9.67319 -2.01412 10.4629 
9.181 -1.16566 10.6473 9.181 -1.16566 10.6473 8.64024 -0.342538 10.8155 
8.18538 0.48317 11.149 7.77558 1.30102 11.5516 7.40355 2.05471 12.0833 
7.03936 2.81126 12.6256 6.69078 3.61242 13.1061 6.20143 4.38552 13.4892 
6.20143 4.38552 13.4892 5.63659 5.03977 13.9579 5.03396 5.69306 14.4128 
4.36694 6.28958 14.8402 3.71105 6.87044 15.3111 3.15568 7.50118 15.8483 
2.64127 8.20773 16.3319 2.16067 8.94853 16.8008 1.78411 9.76926 17.1564 
1.59862 10.6881 17.4598 1.46089 11.632 17.7525 1.30885 12.5845 18.0072 
1.1795 13.5418 18.2477 1.07981 14.5095 18.4616 0.820033 15.4422 18.6901 
0.47787 16.3717 18.8204 0.0120484 17.2405 18.9591 -0.46563 18.1012 19.1344 
-0.953202 18.9418 19.3599 -1.459 19.7637 19.6192 -1.84688 20.6406 19.8908 
-2.10651 21.5335 20.2563 -2.31932 22.4226 20.6607 -2.52104 23.3391 20.957 
-2.92056 24.2347 21.1202 -0.517719 0.562438 -2.66235 -0.517719 0.562438 -2.66235 
-0.678857 0.726274 -3.63551 -0.865328 0.911764 -4.60017 -1.05292 1.1658 -5.54861 
-1.26452 1.4791 -6.47438 -1.45156 1.84637 -7.38329 -1.62819 2.24993 -8.28069 
-1.62819 2.24993 -8.28069 -1.82007 2.65169 -9.17776 -1.88836 3.04936 -10.0864 
-1.76588 3.06579 -11.0787 -1.67242 3.12473 -12.0725 -1.58122 3.30575 -13.0472 
-1.4567 3.60978 -13.9872 -1.41101 4.10174 -14.8566 -1.41101 4.10174 -14.8566 
-1.37833 4.61908 -15.7118 -1.36859 5.10706 -16.5835 -1.28495 5.49872 -17.4998 
-1.01482 5.78997 -18.412 -0.730699 6.04394 -19.3365 -0.644925 6.08013 -19.6891 
-0.644925 6.08013 -19.6891 -0.412735 6.17306 -20.2753 -0.412735 6.17306 -20.2753 
-0.0964235 6.2894 -21.2168 0.156091 6.56907 -22.143 0.258943 7.16425 -22.9396 
0.211328 7.9906 -23.4998 0.0994864 8.88408 -23.9336 0.0994864 8.88408 -23.9336 
-0.0448581 9.80505 -24.2913 -0.267155 10.7275 -24.6046 -0.537836 11.6508 -24.8763 
-0.759962 12.5635 -25.219 -0.759962 12.5635 -25.219 -1.08906 13.4485 -25.527 
-1.47797 14.3427 -25.7538 -1.87613 15.2502 -25.8867 -2.35027 16.1133 -25.9976 
-2.89055 16.9387 -26.1196 -3.48083 17.7307 -26.2195 -4.14115 18.4596 -26.3038 
-4.14115 18.4596 -26.3038 -4.93957 19.0472 -26.2726 -5.74638 19.6052 -26.2287 
-6.60511 20.0701 -26.2504 -7.44744 20.6071 -26.2312 -8.17342 21.2905 -26.2888 
-8.80179 22.0516 -26.4206 -9.40487 22.8492 -26.4552 -9.96206 23.6773 -26.3957 
-10.5254 24.499 -26.3162 -11.0716 25.3308 -26.2163 -11.4869 26.211 -26.0236 
-11.93 27.0616 -25.7406 -12.4026 27.88 -25.4131 -12.8579 28.6956 -25.0549 
-13.255 29.4764 -24.5794 -13.255 29.4764 -24.5794 -13.664 30.2443 -24.0865 
-14.1576 30.8852 -23.4997 -14.6408 31.5547 -22.9358 -15.088 32.259 -22.385 
-15.4669 33.0163 -21.8515 -15.8203 33.8405 -21.4111 -16.1405 34.6982 -21.009 
-16.3959 35.6081 -20.6824 16.0618 -15.5761 4.16094 16.0618 -15.5761 4.16094 
16.1874 -15.465 5.14677 16.4863 -15.3923 6.0936 16.8655 -15.3418 7.01708 
17.1067 -15.1944 7.97629 17.223 -14.8062 8.85357 17.2961 -14.2685 9.68208 
17.3495 -13.7201 10.5165 17.4575 -13.1106 11.2595 17.8723 -12.4733 11.8715 
18.3369 -11.8456 12.4961 18.8562 -11.2616 13.12 19.4279 -10.7206 13.7368 
19.9402 -10.0593 14.2053 20.4248 -9.27904 14.5711 20.9048 -8.49283 14.9569 
21.2559 -7.69285 15.4372 21.4588 -6.8326 15.8992 21.612 -5.95603 16.3559 
21.7741 -5.10119 16.8469 21.9293 -4.24694 17.3431 22.0728 -3.38222 17.8219 
22.5402 -2.54625 18.1065 23.0549 -1.72797 18.3624 23.5732 -0.899139 18.5233 
24.0751 -0.0424004 18.62 24.5266 0.838317 18.763 24.7439 1.79057 18.923 
24.8177 2.75002 19.195 24.914 3.68966 19.5125 24.9563 4.64437 19.7983 
25.042 5.61326 20.0302 25.1282 6.58227 20.2617 25.1282 6.58227 20.2617 
25.3365 7.55241 20.3844 25.5304 8.52887 20.4661 25.7724 9.49909 20.4664 
25.7724 9.49909 20.4664 26.0175 10.4686 20.4625 26.2695 11.4279 20.3676 
26.4744 12.3909 20.2107 26.6845 13.3541 20.0435 26.8609 14.3308 19.9211 
26.9227 15.3086 19.7766 26.784 16.297 19.8254 26.784 16.297 19.8254 
26.6052 17.2756 19.9272 26.3553 18.2373 19.9956 26.0913 19.1994 20.0625 
25.7704 20.141 20.0875 25.7704 20.141 20.0875 25.4243 21.0787 20.0962 
25.3883 21.8454 19.7739 25.3883 21.8454 19.7739 25.3788 21.9974 19.7046 
25.2 22.941 19.4267 24.9804 23.8908 19.2038 24.7404 24.8412 19.0061 
24.4728 25.7836 18.8075 24.1049 26.7108 18.7364 23.7341 27.6374 18.6748 
23.7341 27.6374 18.6748 23.3481 28.5589 18.6303 23.0278 29.4963 18.4937 
22.7854 30.4377 18.2593 22.5453 31.3774 18.0158 22.3776 32.3046 17.681 
22.3776 32.3046 17.681 22.2588 33.2223 17.3022 22.1369 34.1349 16.9126 
21.9832 35.043 16.5238 21.7632 35.9529 16.1737 21.4331 36.8608 15.9246 
21.0274 37.7596 15.7599 20.5916 38.6534 15.6545 20.5916 38.6534 15.6545 
20.1482 39.5435 15.5515 19.6483 40.4008 15.4692 19.1047 41.231 15.3596 
18.6326 42.0801 15.1227 18.2811 42.8244 14.5694 17.922 43.5653 14.0032 
17.5414 44.2643 13.4005 17.1372 44.923 12.7685 17.1372 44.923 12.7685 
16.6272 45.5582 12.1919 16.0886 46.1797 11.6268 15.3618 46.7821 11.3058 
14.5656 47.3014 11.0314 17.9633 -16.7608 2.19865 17.9633 -16.7608 2.19865 
17.8002 -16.6032 3.17257 17.8416 -16.5321 4.16918 17.9422 -16.3831 5.14045 
18.0219 -16.1256 6.09674 18.0545 -15.8364 7.05332 18.0282 -15.5135 7.99605 
18.0558 -15.0743 8.87808 18.1514 -14.5437 9.70805 18.3063 -14.0255 10.5491 
18.4657 -13.39 11.2888 18.718 -12.7524 12.0042 19.0887 -12.0787 12.6265 
19.5347 -11.4456 13.2592 20.1724 -10.847 13.6676 20.9324 -10.2695 13.9451 
21.7334 -9.71507 14.1394 22.5246 -9.12537 14.2319 23.3784 -8.60585 14.2256 
24.2077 -8.05895 14.1683 25.0319 -7.4979 14.0901 25.8414 -6.91216 14.0519 
26.634 -6.30267 14.0333 27.4028 -5.66707 13.9845 28.0687 -4.92415 14.0348 
28.6204 -4.10055 14.1163 29.0933 -3.22557 14.2023 29.5329 -2.33279 14.2445 
29.9458 -1.42305 14.2608 30.3231 -0.49808 14.2525 30.708 0.424525 14.2293 
31.1335 1.32714 14.1641 31.666 2.15557 13.9905 32.213 2.92221 13.6724 
32.7893 3.63851 13.2803 33.3683 4.34998 12.8822 33.8618 5.11791 12.4912 
34.2794 5.92539 12.0812 34.6207 6.8145 11.7762 34.9564 7.70826 11.4788 
35.1906 8.63554 11.2067 35.3188 9.59673 10.9739 35.4379 10.5607 10.7361 
35.5531 11.5262 10.5027 35.8451 12.3809 10.0735 36.1686 13.1734 9.56302 
36.4592 13.9056 8.95325 36.7654 14.6186 8.32238 36.8598 15.5557 7.98642 
36.942 16.5003 7.6686 36.9731 17.4523 7.36632 36.997 18.4067 7.06894 
37.018 19.3627 6.77613 37.0765 20.2743 6.37694 37.048 21.1486 5.91153 
37.1258 21.9174 5.27709 37.2872 22.5886 4.55362 37.3424 23.319 3.88093 
37.2328 24.068 3.24644 37.2328 24.068 3.24644 37.0602 24.8242 2.61737 
36.8543 25.5978 2.02 36.5197 26.4058 1.54056 36.1594 27.211 1.07083 
35.8297 27.9702 0.509958 35.5471 28.6538 -0.161218 35.2684 29.2727 -0.894429 
35.0055 29.8741 -1.64885 34.7274 30.4585 -2.40983 34.412 30.9514 -3.21647 
34.0953 31.44 -4.02946 33.7823 31.9221 -4.84774 33.4209 32.3804 -5.65636 
32.9705 32.954 -6.34016 32.4511 33.6648 -6.81452 20.8183 -19.6218 -19.9745 
20.8183 -19.6218 -19.9745 21.628 -20.1778 -19.7824 22.4614 -20.6905 -19.5819 
23.2563 -21.114 -19.1589 24.0469 -21.5333 -18.7127 24.8557 -21.9008 -18.2593 
25.7167 -22.264 -17.9146 26.6545 -22.5042 -17.714 27.6212 -22.6688 -17.5393 
28.6067 -22.8359 -17.5097 29.5908 -23.006 -17.5611 30.5653 -23.1662 -17.4043 
31.5342 -23.1626 -17.2284 32.4392 -23.1059 -16.8097 33.3416 -23.0016 -16.3944 
33.3416 -23.0016 -16.3944 34.2444 -22.8971 -15.9772 35.1923 -22.7875 -15.6903 
36.1029 -22.4939 -15.4797 37.0451 -22.2029 -15.3137 37.9974 -21.9053 -15.2963 
38.9401 -21.5738 -15.2932 39.821 -21.1795 -15.4525 40.6137 -20.5867 -15.3901 
41.4003 -19.977 -15.3041 42.0907 -19.2705 -15.2263 42.0907 -19.2705 -15.2263 
42.6932 -18.4877 -15.1788 43.2654 -17.6728 -15.0917 43.8115 -16.8421 -15.0009 
44.351 -16.0014 -14.9997 44.8288 -15.2401 -15.3615 44.8288 -15.2401 -15.3615 
45.2304 -14.4314 -15.7785 45.6097 -13.5665 -16.1074 45.9287 -12.6296 -16.2501 
46.1774 -11.6624 -16.2791 46.3953 -10.6867 -16.2896 46.5604 -9.70699 -16.3117 
46.6702 -8.72661 -16.4489 46.6702 -8.72661 -16.4489 46.8688 -7.82102 -16.8229 
47.0858 -6.92831 -17.2177 47.3234 -6.08136 -17.6933 47.3234 -6.08136 -17.6933 
47.4372 -5.25037 -18.203 47.4759 -4.41139 -18.7399 47.5171 -3.57519 -19.2868 
47.5171 -3.57519 -19.2868 47.5645 -2.74002 -19.8344 47.6187 -1.85411 -20.2945 
47.3703 -0.935439 -20.4593 47.1017 0.0223161 -20.5618 46.8316 0.981118 -20.6498 
46.5932 1.93042 -20.8461 21.5434 -19.9809 -20.5625 21.5434 -19.9809 -20.5625 
21.927 -20.0234 -21.4851 22.3194 -20.0375 -22.4017 22.6251 -19.8882 -23.3389 
22.9127 -19.7242 -24.2825 23.1686 -19.5372 -25.2309 23.4638 -19.2693 -26.1415 
23.7677 -18.9742 -27.0468 24.0798 -18.6628 -27.9433 24.5736 -18.4789 -28.7924 
25.1691 -18.4127 -29.593 25.8208 -18.4014 -30.351 26.5186 -18.3474 -31.0496 
27.1664 -18.1036 -31.7649 27.7577 -17.796 -32.5104 28.323 -17.4459 -33.2572 
28.8442 -17.0512 -34.0138 29.3597 -16.5924 -34.7154 29.8903 -15.9936 -35.2876 
30.4265 -15.3823 -35.8696 30.9569 -14.7719 -36.4578 31.5827 -14.2499 -37.0373 
31.5827 -14.2499 -37.0373 32.2536 -13.7746 -37.6065 33.0039 -13.3125 -37.8465 
33.8566 -12.8242 -37.9941 34.7611 -12.4206 -38.1317 35.6731 -12.0741 -38.158 
36.5999 -11.7724 -38.0164 37.5424 -11.4704 -37.873 37.5424 -11.4704 -37.873 
38.4823 -11.161 -37.729 39.2415 -10.5304 -37.568 39.2415 -10.5304 -37.568 
39.8696 -9.88721 -37.2243 40.4418 -9.25641 -36.7336 40.5342 -9.15027 -36.6476 
40.5342 -9.15027 -36.6476 41.0019 -8.61312 -36.2124 41.0019 -8.61312 -36.2124 
41.5801 -7.98885 -35.6871 42.1607 -7.3847 -35.1476 42.6838 -6.92316 -34.4595 
42.6838 -6.92316 -34.4595 43.3846 -6.70797 -33.7793 44.1178 -6.56203 -33.1152 
44.8356 -6.3866 -32.4422 45.2733 -6.06179 -31.6409 45.3679 -5.94776 -31.4537 
45.3679 -5.94776 -31.4537 45.5651 -5.64005 -30.8262 45.5651 -5.64005 -30.8262 
45.5959 -5.61734 -30.8164 45.5959 -5.61734 -30.8164 45.8202 -5.1799 -29.9514 
46.0269 -4.7123 -29.092 46.3117 -4.35054 -28.2043 46.6517 -4.09548 -27.2992 
46.9955 -3.84823 -26.3932 47.3479 -3.67925 -25.4789 47.3479 -3.67925 -25.4789 
47.5058 -3.57518 -24.5199 47.5923 -3.57378 -23.5437 11.5147 -12.589 -12.6003 
11.5147 -12.589 -12.6003 11.5987 -12.7048 -13.59 11.6042 -12.7629 -14.5883 
11.6279 -12.6774 -15.5747 11.6149 -12.5497 -16.5663 11.649 -12.4122 -17.5548 
11.7271 -12.2473 -18.5316 11.902 -12.0404 -19.4893 12.1982 -11.9397 -20.4391 
12.1982 -11.9397 -20.4391 12.5854 -11.9203 -21.3608 13.0448 -11.9516 -22.2458 
13.5755 -11.9273 -23.0888 14.0165 -11.8073 -23.9781 14.4065 -11.6284 -24.8814 
14.4065 -11.6284 -24.8814 14.789 -11.4414 -25.7862 14.789 -11.4414 -25.7862 
14.997 -11.0805 -26.6953 15.2562 -10.6575 -27.5562 15.7056 -10.4096 -28.4144 
16.1007 -10.3073 -28.9999 16.1007 -10.3073 -28.9999 16.2596 -10.2658 -29.2345 
16.8138 -10.1222 -30.0544 17.4083 -10.023 -30.8523 17.4083 -10.023 -30.8523 
18.0033 -9.918 -31.6482 18.631 -9.68424 -32.3788 19.2633 -9.44709 -33.1164 
19.8428 -9.14201 -33.8721 20.3729 -8.78003 -34.6389 20.8845 -8.21005 -35.1989 
21.4132 -7.54635 -35.7258 21.4132 -7.54635 -35.7258 21.8969 -6.85965 -36.2681 
22.4772 -6.20891 -36.5607 23.3697 -5.83619 -36.7308 23.3697 -5.83619 -36.7308 
24.2793 -5.45863 -36.904 25.1972 -5.10304 -37.0804 26.1175 -4.78101 -37.1554 
27.035 -4.42646 -37.0607 27.9382 -4.01299 -36.9458 28.6881 -3.38029 -36.7527 
28.6881 -3.38029 -36.7527 29.415 -2.73542 -36.5328 30.1078 -2.1529 -36.1545 
30.8028 -1.56067 -35.7473 31.4783 -0.950029 -35.334 32.2765 -0.472094 -34.9671 
33.2059 -0.224382 -34.6939 34.1248 -0.0513207 -34.3654 34.1248 -0.0513207 -34.3654 
34.8958 0.342835 -33.8693 35.6659 0.742162 -33.3718 36.3178 1.27783 -32.8351 
37.0241 1.75773 -32.3147 37.8263 2.11627 -31.8372 38.6018 2.28607 -31.2593 
39.4165 2.41156 -30.6932 40.2602 2.47606 -30.1603 40.2602 2.47606 -30.1603 