# vtk DataFile Version 3.0
vtk output
ASCII
DATASET POLYDATA
POINTS 24103 double
-17.4848 14.682 -0.47264 -17.5152 14.6867 -0.366785 -17.7447 14.7114 0.577328 
-17.9026 14.7052 1.53593 -18.0215 14.7223 2.51642 -18.1517 14.788 3.48586 
-18.1253 14.7836 4.13485 -17.7642 14.5883 4.86746 -17.394 14.3422 5.71683 
-17.0211 14.0944 6.57225 -16.6194 13.8368 7.41569 -15.9417 13.5017 8.06883 
-15.0839 13.1386 8.43027 -14.1641 12.8316 8.5777 -13.1964 12.6603 8.54632 
-12.2312 12.4342 8.41199 -11.3271 12.0981 8.15663 -10.4695 11.6892 7.86 
-9.64677 11.2322 7.52389 -8.83985 10.7775 7.14687 -8.05891 10.3102 6.73307 
-7.29422 9.83338 6.30011 -6.50546 9.37085 5.89504 -5.65612 8.90842 5.64219 
-4.85417 8.4038 5.38458 -4.16838 7.72624 5.15968 -3.5457 7.0234 4.87953 
-3.06186 6.27806 4.56107 -2.70203 5.52241 4.04957 -2.39128 4.79847 3.45474 
-2.1086 4.13084 2.77047 -1.80695 3.50719 2.05368 -1.52731 2.89006 1.32974 
-1.22566 2.20171 0.679178 -1.22566 2.20171 0.679178 -0.91416 1.4987 0.0433746 
-0.91416 1.4987 0.0433746 -0.547118 0.708878 -0.436695 -0.547118 0.708878 -0.436695 
-0.1703 -0.10395 -0.895724 -0.1703 -0.10395 -0.895724 0.303881 -0.854253 -1.35635 
0.303881 -0.854253 -1.35635 0.762177 -1.62135 -1.8238 0.762177 -1.62135 -1.8238 
1.14861 -2.16051 -2.57181 1.536 -2.70032 -3.31042 1.536 -2.70032 -3.31042 
1.95786 -3.3115 -3.96954 1.95786 -3.3115 -3.96954 2.4375 -3.93596 -4.58743 
2.97289 -4.54357 -5.17194 2.97289 -4.54357 -5.17194 3.59637 -5.19425 -5.59685 
4.22798 -5.84013 -6.0215 4.22798 -5.84013 -6.0215 4.93858 -6.4748 -6.32099 
4.93858 -6.4748 -6.32099 5.55068 -7.09647 -6.80155 5.55068 -7.09647 -6.80155 
6.04085 -7.67568 -7.44747 6.56523 -8.25651 -8.06662 6.56523 -8.25651 -8.06662 
7.11601 -8.83271 -8.67192 7.73744 -9.38896 -9.22248 7.73744 -9.38896 -9.22248 
8.40776 -9.96523 -9.6826 9.13137 -10.5592 -10.0246 9.85507 -11.1559 -10.3599 
10.5881 -11.7584 -10.6636 10.5881 -11.7584 -10.6636 11.3226 -12.3591 -10.9793 
12.0372 -12.9017 -11.4188 12.0372 -12.9017 -11.4188 12.6532 -13.383 -12.0378 
13.2645 -13.8625 -12.6624 13.8444 -14.3219 -13.3303 14.4429 -14.7934 -13.9727 
14.4429 -14.7934 -13.9727 15.0277 -15.2963 -14.5977 15.7163 -15.8894 -15.0067 
16.4334 -16.497 -15.3362 17.1462 -17.1004 -15.6796 17.1462 -17.1004 -15.6796 
17.8555 -17.7006 -16.0349 18.5732 -18.2794 -16.4235 19.3077 -18.8101 -16.8426 
20.0262 -19.328 -17.2962 20.6163 -19.7169 -18.0012 20.6163 -19.7169 -18.0012 
21.1754 -20.0523 -18.7546 21.8 -20.3325 -19.4846 22.5325 -20.6332 -20.0946 
22.5325 -20.6332 -20.0946 23.3243 -20.9557 -20.6129 24.1906 -21.3055 -20.9654 
25.0455 -21.6461 -21.3489 25.0455 -21.6461 -21.3489 25.9278 -21.8967 -21.7462 
26.8169 -22.103 -22.1541 27.6574 -22.2755 -22.6642 27.6574 -22.2755 -22.6642 
28.4568 -22.4223 -23.2432 29.2566 -22.5695 -23.8214 29.2566 -22.5695 -23.8214 
30.0651 -22.7084 -24.3948 30.7968 -22.6897 -25.0706 31.5703 -22.6556 -25.7032 
31.5703 -22.6556 -25.7032 32.3613 -22.6271 -26.3126 33.2881 -22.6523 -26.6842 
34.2207 -22.6807 -27.0401 35.1702 -22.7192 -27.3465 36.1402 -22.7244 -27.5916 
36.1402 -22.7244 -27.5916 37.1049 -22.6888 -27.8516 38.0598 -22.6481 -28.1399 
38.0598 -22.6481 -28.1399 38.8968 -22.4551 -28.6487 39.7355 -22.2499 -29.1517 
40.4977 -21.9863 -29.7542 41.2636 -21.5133 -30.1523 41.2636 -21.5133 -30.1523 
42.126 -21.0465 -30.3474 42.9995 -20.5874 -30.5093 43.8815 -20.1318 -30.6294 
44.666 -19.6492 -30.9843 44.666 -19.6492 -30.9843 45.1023 -18.9876 -31.345 
45.4973 -18.2244 -31.8157 45.8678 -17.4468 -32.3001 45.9799 -16.5312 -32.6612 
45.9799 -16.5312 -32.6612 46.033 -15.5918 -32.9831 46.0954 -14.6367 -33.2403 
46.1745 -13.6743 -33.4481 46.1745 -13.6743 -33.4481 46.1567 -12.6754 -33.4853 
46.0768 -11.6795 -33.4276 45.9295 -10.7027 -33.2694 45.9295 -10.7027 -33.2694 
45.8029 -9.7782 -32.9099 45.7026 -8.86728 -32.5243 45.6259 -7.95166 -32.1451 
45.5271 -7.02579 -31.792 45.411 -6.09401 -31.4606 45.411 -6.09401 -31.4606 
45.232 -5.17414 -31.1067 44.9245 -4.24624 -30.9019 44.9245 -4.24624 -30.9019 
44.564 -3.31713 -30.7799 44.1467 -2.42718 -30.596 43.6744 -1.55628 -30.4781 
43.6744 -1.55628 -30.4781 43.1577 -0.736498 -30.2472 42.7524 0.128643 -29.9769 
42.4784 1.01661 -29.615 42.4784 1.01661 -29.615 42.1783 1.90472 -29.2724 
41.8968 2.79328 -28.9157 41.5817 3.63631 -28.4838 41.2349 4.45585 -28.0276 
40.8475 5.27613 -27.6088 40.2889 6.07083 -27.375 39.7424 6.8879 -27.2734 
39.7424 6.8879 -27.2734 39.1588 7.68262 -27.1094 38.5704 8.45718 -26.8774 
38.0509 9.25124 -26.5859 38.0509 9.25124 -26.5859 37.7511 10.1385 -26.2868 
37.7394 10.1819 -26.2703 37.7394 10.1819 -26.2703 37.5081 11.043 -25.9439 
37.2421 11.9344 -25.597 37.2421 11.9344 -25.597 36.9966 12.8657 -25.3196 
36.695 13.7571 -24.9813 36.695 13.7571 -24.9813 36.1467 14.579 -24.9668 
35.6014 15.4154 -24.9273 35.0761 16.2465 -24.8798 35.0761 16.2465 -24.8798 
34.6302 17.1154 -24.9123 34.6302 17.1154 -24.9123 34.1891 18.0154 -24.898 
33.7497 18.9107 -24.8416 33.3126 19.8017 -24.7498 32.9603 20.7121 -24.6743 
32.8032 21.6551 -24.3848 32.6522 22.5852 -24.105 32.5433 23.5347 -23.8836 
32.5433 23.5347 -23.8836 32.4895 23.7901 -23.7995 32.4895 23.7901 -23.7995 
32.3836 24.4825 -23.6254 32.2157 25.4304 -23.3631 32.2157 25.4304 -23.3631 
32.0093 26.3645 -23.0695 31.7137 27.2744 -22.782 31.2476 28.1552 -22.6357 
30.7935 28.8659 -22.5089 30.7935 28.8659 -22.5089 30.6865 28.9613 -22.4425 
30.1708 29.7908 -22.2841 29.562 30.543 -22.0613 29.562 30.543 -22.0613 
28.9663 31.2069 -21.6178 28.3936 31.8891 -21.1682 27.9496 32.5692 -20.5872 
27.543 33.2381 -19.9718 27.543 33.2381 -19.9718 27.1746 33.9681 -19.4128 
26.7916 34.7065 -18.8617 26.7916 34.7065 -18.8617 26.4175 35.4604 -18.3441 
26.062 36.2615 -17.8851 25.6452 37.0702 -17.4796 25.2102 37.8895 -17.1279 
24.7682 38.712 -16.7779 24.2353 39.5228 -16.549 24.2353 39.5228 -16.549 
23.7187 40.3233 -16.2618 23.1968 41.1193 -15.964 22.671 41.9114 -15.6671 
22.1191 42.6682 -15.3146 22.1191 42.6682 -15.3146 21.5629 43.3934 -14.9111 
21.5629 43.3934 -14.9111 20.9792 43.9866 -14.3644 20.4146 44.5416 -13.7542 
19.9898 44.9678 -12.9569 19.9898 44.9678 -12.9569 19.5781 45.4468 -12.1876 
19.1518 45.9468 -11.4362 18.6891 46.5386 -10.7974 18.149 47.2556 -10.3742 
17.6022 47.9628 -9.93142 17.6022 47.9628 -9.93142 17.0536 48.6692 -9.48798 
16.4734 49.33 -9.01252 16.0299 49.9534 -8.37363 15.6991 50.5239 -7.62219 
15.3238 51.078 -6.8811 14.8868 51.6215 -6.1588 14.3747 52.0793 -5.43267 
13.7174 52.489 -4.80167 -1.22566 2.20171 0.679178 -1.03608 1.88569 -0.250432 
-0.919799 1.59479 -1.19685 -0.873616 1.41969 -2.18013 -0.883978 1.26917 -3.16693 
-0.881258 1.04761 -4.14189 -0.835491 0.768101 -5.10054 -0.694353 0.352298 -5.99869 
-0.531446 -0.105179 -6.87286 -0.340805 -0.607827 -7.71606 -0.0801737 -1.10193 -8.54095 
0.209177 -1.5981 -9.35916 0.330865 -1.74747 -10.3404 0.451354 -1.86469 -11.3259 
0.608374 -1.93667 -12.306 0.813679 -1.97186 -13.2822 0.813679 -1.97186 -13.2822 
1.01881 -2.00603 -14.2603 1.2228 -2.03795 -15.2388 1.48821 -2.02921 -16.1975 
1.80473 -2.05609 -17.1453 2.19002 -2.23062 -18.0514 2.64398 -2.57765 -18.8721 
3.16933 -2.94261 -19.637 3.70715 -3.31092 -20.3953 4.15961 -3.51667 -21.2611 
4.40195 -3.38532 -22.2223 4.40195 -3.38532 -22.2223 4.46996 -3.0058 -23.1446 
4.35372 -2.43777 -23.958 4.35372 -2.43777 -23.958 4.04591 -1.68394 -24.5385 
3.674 -0.874255 -24.995 3.30647 -0.0036377 -25.3192 2.9487 0.887968 -25.594 
2.9487 0.887968 -25.594 2.63605 1.80174 -25.8366 2.37911 2.73023 -26.0979 
2.37911 2.73023 -26.0979 2.14626 3.67119 -26.3357 1.92972 4.63102 -26.4857 
1.92972 4.63102 -26.4857 1.72598 5.60483 -26.5528 1.70554 5.69877 -26.5539 
1.70554 5.69877 -26.5539 1.51332 6.58069 -26.5635 1.30875 7.55653 -26.5605 
1.30875 7.55653 -26.5605 1.08199 8.51714 -26.4055 0.786454 9.44641 -26.1846 
0.431386 10.3352 -25.8947 -0.000659941 11.1607 -25.5362 -0.493711 11.9476 -25.1775 
-0.493711 11.9476 -25.1775 -1.05579 12.6973 -24.8737 -1.69438 13.4346 -24.7034 
-2.28645 14.2383 -24.6571 -2.92054 14.9739 -24.7183 -3.554 15.7283 -24.882 
-3.554 15.7283 -24.882 -4.14589 16.5202 -25.0284 -4.14589 16.5202 -25.0284 
-4.85471 17.213 -25.0569 -5.61822 17.8114 -25.1175 -6.46523 18.3137 -25.1669 
-6.46523 18.3137 -25.1669 -7.31096 18.8473 -25.181 -8.09673 19.4667 -25.1553 
-8.80408 20.1725 -25.157 -9.46784 20.916 -25.2051 -10.1023 21.6826 -25.2658 
-10.1023 21.6826 -25.2658 -10.635 22.5238 -25.2283 -11.1402 23.3846 -25.1673 
-11.6039 24.2687 -25.141 -12.0489 25.1637 -25.0691 -12.41 26.076 -24.896 
-12.41 26.076 -24.896 -12.7802 26.9808 -24.6866 -13.165 27.874 -24.4557 
-13.165 27.874 -24.4557 -13.6074 28.6567 -24.0226 -14.0866 29.3201 -23.4481 
-14.0866 29.3201 -23.4481 -14.5501 30.026 -22.913 -14.9942 30.7647 -22.4061 
-15.4155 31.5374 -21.9317 -15.4155 31.5374 -21.9317 -15.6913 32.4396 -21.601 
-15.9118 33.3721 -21.3151 -15.9118 33.3721 -21.3151 -16.1249 34.3089 -21.0379 
-16.3362 35.2467 -20.7626 -16.5286 36.185 -20.477 -1.22566 2.20171 0.679178 
-0.883073 1.3027 0.946555 -0.531117 0.421939 1.25803 -0.153107 -0.359378 1.74784 
0.361664 -1.14127 2.06655 0.981284 -1.90316 2.16775 1.68936 -2.5874 2.26328 
2.47563 -3.18784 2.3188 3.29703 -3.74928 2.3335 4.07818 -4.33418 2.51656 
4.86415 -4.8988 2.76755 5.63043 -5.37072 3.2042 6.33663 -5.85687 3.7168 
7.0722 -6.39978 4.12141 7.78336 -7.01519 4.45379 8.44852 -7.71777 4.70195 
8.44852 -7.71777 4.70195 9.10627 -8.44324 4.90459 9.75861 -9.17276 5.10929 
10.0012 -9.47865 5.16445 10.0012 -9.47865 5.16445 10.3786 -9.94496 5.2467 
10.9971 -10.7198 5.37755 11.6917 -11.4183 5.48508 11.6917 -11.4183 5.48508 
12.4078 -12.0691 5.73699 13.0514 -12.5055 6.36889 13.6123 -12.6772 7.17864 
13.6123 -12.6772 7.17864 14.0037 -12.6266 8.09612 14.389 -12.3926 8.97993 
14.8681 -12.207 9.82846 14.8681 -12.207 9.82846 15.2897 -11.8366 10.654 
15.6234 -11.2583 11.3838 15.6546 -10.4026 11.869 15.6546 -10.4026 11.869 
15.5384 -9.4793 12.2448 15.2876 -8.59566 12.6326 15.2876 -8.59566 12.6326 
[...]
POINT_DATA 24103
FIELD FieldData 1
previousPts 3 24103 double
-17.4848 14.682 -0.47264 -17.4848 14.682 -0.47264 -17.5152 14.6867 -0.366785 
-17.7447 14.7114 0.577328 -17.9026 14.7052 1.53593 -18.0215 14.7223 2.51642 
-18.1517 14.788 3.48586 -18.1253 14.7836 4.13485 -17.7642 14.5883 4.86746 
-17.394 14.3422 5.71683 -17.0211 14.0944 6.57225 -16.6194 13.8368 7.41569 
-15.9417 13.5017 8.06883 -15.0839 13.1386 8.43027 -14.1641 12.8316 8.5777 
-13.1964 12.6603 8.54632 -12.2312 12.4342 8.41199 -11.3271 12.0981 8.15663 
-10.4695 11.6892 7.86 -9.64677 11.2322 7.52389 -8.83985 10.7775 7.14687 
-8.05891 10.3102 6.73307 -7.29422 9.83338 6.30011 -6.50546 9.37085 5.89504 
-5.65612 8.90842 5.64219 -4.85417 8.4038 5.38458 -4.16838 7.72624 5.15968 
-3.5457 7.0234 4.87953 -3.06186 6.27806 4.56107 -2.70203 5.52241 4.04957 
-2.39128 4.79847 3.45474 -2.1086 4.13084 2.77047 -1.80695 3.50719 2.05368 
-1.52731 2.89006 1.32974 -1.52731 2.89006 1.32974 -1.22566 2.20171 0.679178 
-1.22566 2.20171 0.679178 -0.91416 1.4987 0.0433746 -0.91416 1.4987 0.0433746 
-0.547118 0.708878 -0.436695 -0.547118 0.708878 -0.436695 -0.1703 -0.10395 -0.895724 
-0.1703 -0.10395 -0.895724 0.303881 -0.854253 -1.35635 0.303881 -0.854253 -1.35635 
0.762177 -1.62135 -1.8238 1.14861 -2.16051 -2.57181 1.14861 -2.16051 -2.57181 
1.536 -2.70032 -3.31042 1.536 -2.70032 -3.31042 1.95786 -3.3115 -3.96954 
2.4375 -3.93596 -4.58743 2.4375 -3.93596 -4.58743 2.97289 -4.54357 -5.17194 
3.59637 -5.19425 -5.59685 3.59637 -5.19425 -5.59685 4.22798 -5.84013 -6.0215 
4.22798 -5.84013 -6.0215 4.93858 -6.4748 -6.32099 4.93858 -6.4748 -6.32099 
5.55068 -7.09647 -6.80155 6.04085 -7.67568 -7.44747 6.04085 -7.67568 -7.44747 
6.56523 -8.25651 -8.06662 7.11601 -8.83271 -8.67192 7.11601 -8.83271 -8.67192 
7.73744 -9.38896 -9.22248 8.40776 -9.96523 -9.6826 9.13137 -10.5592 -10.0246 
9.85507 -11.1559 -10.3599 9.85507 -11.1559 -10.3599 10.5881 -11.7584 -10.6636 
11.3226 -12.3591 -10.9793 11.3226 -12.3591 -10.9793 12.0372 -12.9017 -11.4188 
12.6532 -13.383 -12.0378 13.2645 -13.8625 -12.6624 13.8444 -14.3219 -13.3303 
13.8444 -14.3219 -13.3303 14.4429 -14.7934 -13.9727 15.0277 -15.2963 -14.5977 
15.7163 -15.8894 -15.0067 16.4334 -16.497 -15.3362 16.4334 -16.497 -15.3362 
17.1462 -17.1004 -15.6796 17.8555 -17.7006 -16.0349 18.5732 -18.2794 -16.4235 
19.3077 -18.8101 -16.8426 20.0262 -19.328 -17.2962 20.0262 -19.328 -17.2962 
20.6163 -19.7169 -18.0012 21.1754 -20.0523 -18.7546 21.8 -20.3325 -19.4846 
21.8 -20.3325 -19.4846 22.5325 -20.6332 -20.0946 23.3243 -20.9557 -20.6129 
24.1906 -21.3055 -20.9654 24.1906 -21.3055 -20.9654 25.0456 -21.6461 -21.3489 
25.9278 -21.8967 -21.7462 26.8169 -22.103 -22.1541 26.8169 -22.103 -22.1541 
27.6574 -22.2755 -22.6642 28.4568 -22.4223 -23.2432 28.4568 -22.4223 -23.2432 
29.2566 -22.5695 -23.8214 30.0651 -22.7084 -24.3948 30.7968 -22.6897 -25.0706 
30.7968 -22.6897 -25.0706 31.5703 -22.6556 -25.7032 32.3613 -22.6271 -26.3126 
33.2881 -22.6523 -26.6842 34.2207 -22.6807 -27.0401 35.1702 -22.7192 -27.3465 
35.1702 -22.7192 -27.3465 36.1402 -22.7244 -27.5916 37.1049 -22.6888 -27.8516 
37.1049 -22.6888 -27.8516 38.0598 -22.6481 -28.1399 38.8968 -22.4551 -28.6487 
39.7355 -22.2499 -29.1517 40.4977 -21.9863 -29.7542 40.4977 -21.9863 -29.7542 
41.2636 -21.5133 -30.1523 42.126 -21.0465 -30.3474 42.9995 -20.5874 -30.5093 
43.8815 -20.1318 -30.6294 43.8815 -20.1318 -30.6294 44.666 -19.6492 -30.9843 
45.1023 -18.9876 -31.345 45.4973 -18.2244 -31.8157 45.8678 -17.4468 -32.3001 
45.8678 -17.4468 -32.3001 45.9799 -16.5312 -32.6612 46.033 -15.5918 -32.9831 
46.0954 -14.6367 -33.2403 46.0954 -14.6367 -33.2403 46.1745 -13.6743 -33.4481 
46.1567 -12.6754 -33.4853 46.0768 -11.6794 -33.4276 46.0768 -11.6794 -33.4276 
45.9295 -10.7027 -33.2694 45.8029 -9.7782 -32.9099 45.7026 -8.86728 -32.5243 
45.6259 -7.95166 -32.1451 45.5271 -7.02579 -31.792 45.5271 -7.02579 -31.792 
45.411 -6.09401 -31.4606 45.232 -5.17414 -31.1067 45.232 -5.17414 -31.1067 
44.9245 -4.24624 -30.9019 44.564 -3.31713 -30.7799 44.1467 -2.42718 -30.596 
44.1467 -2.42718 -30.596 43.6745 -1.55628 -30.4781 43.1577 -0.736498 -30.2472 
42.7524 0.128643 -29.9769 42.7524 0.128643 -29.9769 42.4784 1.01661 -29.615 
42.1783 1.90472 -29.2724 41.8968 2.79328 -28.9157 41.5817 3.63631 -28.4838 
41.2349 4.45585 -28.0276 40.8475 5.27613 -27.6088 40.2889 6.07083 -27.375 
40.2889 6.07083 -27.375 39.7424 6.8879 -27.2734 39.1588 7.68262 -27.1094 
38.5704 8.45718 -26.8774 38.5704 8.45718 -26.8774 38.0509 9.25124 -26.5859 
37.7511 10.1385 -26.2868 37.7394 10.1819 -26.2703 37.7394 10.1819 -26.2703 
37.5081 11.043 -25.9439 37.5081 11.043 -25.9439 37.2421 11.9344 -25.597 
36.9966 12.8657 -25.3196 36.9966 12.8657 -25.3196 36.695 13.7571 -24.9813 
36.1467 14.579 -24.9668 35.6014 15.4154 -24.9273 35.6014 15.4154 -24.9273 
35.0762 16.2465 -24.8798 35.0762 16.2465 -24.8798 34.6302 17.1154 -24.9123 
34.1891 18.0154 -24.898 33.7497 18.9107 -24.8416 33.3126 19.8017 -24.7498 
32.9603 20.7121 -24.6743 32.8032 21.6551 -24.3848 32.6522 22.5852 -24.105 
32.6522 22.5852 -24.105 32.5433 23.5347 -23.8836 32.4895 23.7901 -23.7995 
32.4895 23.7901 -23.7995 32.3836 24.4825 -23.6254 32.3836 24.4825 -23.6254 
32.2157 25.4304 -23.3631 32.0093 26.3645 -23.0695 31.7137 27.2744 -22.782 
31.2476 28.1552 -22.6357 30.7935 28.8659 -22.5089 30.7935 28.8659 -22.5089 
30.6865 28.9613 -22.4425 30.1708 29.7908 -22.2841 30.1708 29.7908 -22.2841 
29.562 30.543 -22.0613 28.9663 31.2069 -21.6178 28.3936 31.8891 -21.1682 
27.9496 32.5692 -20.5872 27.9496 32.5692 -20.5872 27.543 33.2381 -19.9718 
27.1746 33.9681 -19.4128 27.1746 33.9681 -19.4128 26.7916 34.7065 -18.8617 
26.4175 35.4604 -18.3441 26.062 36.2615 -17.8851 25.6452 37.0702 -17.4796 
25.2102 37.8895 -17.1279 24.7682 38.712 -16.7779 24.7682 38.712 -16.7779 
24.2353 39.5228 -16.549 23.7187 40.3233 -16.2618 23.1968 41.1193 -15.964 
22.671 41.9114 -15.6671 22.671 41.9114 -15.6671 22.1191 42.6682 -15.3146 
22.1191 42.6682 -15.3146 21.5629 43.3934 -14.9111 20.9792 43.9866 -14.3644 
20.4146 44.5416 -13.7542 20.4146 44.5416 -13.7542 19.9898 44.9678 -12.9569 
19.5781 45.4468 -12.1876 19.1518 45.9468 -11.4362 18.6891 46.5386 -10.7974 
18.149 47.2556 -10.3742 18.149 47.2556 -10.3742 17.6022 47.9628 -9.93142 
17.0536 48.6692 -9.48798 16.4734 49.33 -9.01252 16.0299 49.9534 -8.37363 
15.6991 50.5239 -7.62219 15.3238 51.078 -6.8811 14.8868 51.6215 -6.1588 
14.3747 52.0793 -5.43267 -1.22566 2.20171 0.679178 -1.22566 2.20171 0.679178 
-1.03608 1.88569 -0.250432 -0.919799 1.59479 -1.19685 -0.873616 1.41969 -2.18013 
-0.883978 1.26917 -3.16693 -0.881258 1.04761 -4.14189 -0.835491 0.768101 -5.10054 
-0.694353 0.352298 -5.99869 -0.531446 -0.105179 -6.87286 -0.340805 -0.607827 -7.71606 
-0.0801737 -1.10193 -8.54095 0.209177 -1.5981 -9.35916 0.330865 -1.74747 -10.3404 
0.451354 -1.86469 -11.3259 0.608374 -1.93667 -12.306 0.608374 -1.93667 -12.306 
0.813679 -1.97186 -13.2822 1.01881 -2.00603 -14.2603 1.2228 -2.03795 -15.2388 
1.48821 -2.02921 -16.1975 1.80473 -2.05609 -17.1453 2.19002 -2.23062 -18.0514 
2.64398 -2.57765 -18.8721 3.16933 -2.94261 -19.637 3.70715 -3.31092 -20.3953 
4.15961 -3.51667 -21.2611 4.15961 -3.51667 -21.2611 4.40195 -3.38532 -22.2223 
4.46996 -3.0058 -23.1446 4.46996 -3.0058 -23.1446 4.35372 -2.43777 -23.958 
4.04591 -1.68394 -24.5385 3.674 -0.874255 -24.995 3.30647 -0.0036377 -25.3192 
3.30647 -0.0036377 -25.3192 2.9487 0.887968 -25.594 2.63605 1.80174 -25.8366 
2.63605 1.80174 -25.8366 2.37911 2.73023 -26.0979 2.14626 3.67119 -26.3357 
2.14626 3.67119 -26.3357 1.92972 4.63102 -26.4857 1.72598 5.60483 -26.5528 
1.70554 5.69877 -26.5539 1.70554 5.69877 -26.5539 1.51332 6.58069 -26.5635 
1.51332 6.58069 -26.5635 1.30875 7.55653 -26.5605 1.08199 8.51714 -26.4055 
0.786454 9.44641 -26.1846 0.431386 10.3352 -25.8947 -0.000659941 11.1607 -25.5362 
-0.000659941 11.1607 -25.5362 -0.493711 11.9476 -25.1775 -1.05579 12.6973 -24.8737 
-1.69438 13.4346 -24.7034 -2.28645 14.2383 -24.6571 -2.92054 14.9739 -24.7183 
-2.92054 14.9739 -24.7183 -3.554 15.7283 -24.882 -3.554 15.7283 -24.882 
-4.14589 16.5202 -25.0284 -4.85471 17.213 -25.0569 -5.61822 17.8114 -25.1175 
-5.61822 17.8114 -25.1175 -6.46523 18.3137 -25.1669 -7.31096 18.8473 -25.181 
-8.09673 19.4667 -25.1553 -8.80408 20.1725 -25.157 -9.46784 20.916 -25.2051 
-9.46784 20.916 -25.2051 -10.1023 21.6826 -25.2658 -10.635 22.5238 -25.2283 
-11.1402 23.3846 -25.1673 -11.6039 24.2687 -25.141 -12.0489 25.1637 -25.0691 
-12.0489 25.1637 -25.0691 -12.41 26.076 -24.896 -12.7802 26.9808 -24.6866 
-12.7802 26.9808 -24.6866 -13.165 27.874 -24.4557 -13.6074 28.6567 -24.0226 
-13.6074 28.6567 -24.0226 -14.0866 29.3201 -23.4481 -14.5501 30.026 -22.913 
-14.9942 30.7647 -22.4061 -14.9942 30.7647 -22.4061 -15.4155 31.5374 -21.9317 
-15.6913 32.4396 -21.601 -15.6913 32.4396 -21.601 -15.9118 33.3721 -21.3151 
-16.1249 34.3089 -21.0379 -16.3362 35.2467 -20.7626 -1.22566 2.20171 0.679178 
-1.22566 2.20171 0.679178 -0.883073 1.3027 0.946555 -0.531117 0.421939 1.25803 
-0.153107 -0.359378 1.74784 0.361664 -1.14127 2.06655 0.981284 -1.90316 2.16775 
1.68936 -2.5874 2.26328 2.47563 -3.18784 2.3188 3.29703 -3.74928 2.3335 
4.07818 -4.33418 2.51656 4.86415 -4.8988 2.76755 5.63043 -5.37072 3.2042 
6.33663 -5.85687 3.7168 7.0722 -6.39978 4.12141 7.78336 -7.01519 4.45379 
7.78336 -7.01519 4.45379 8.44852 -7.71777 4.70195 9.10627 -8.44324 4.90459 
9.75861 -9.17276 5.10929 10.0012 -9.47865 5.16445 10.0012 -9.47865 5.16445 
10.3786 -9.94496 5.2467 10.9971 -10.7198 5.37755 10.9971 -10.7198 5.37755 
11.6917 -11.4183 5.48508 12.4078 -12.0691 5.73699 13.0514 -12.5055 6.36889 
13.0514 -12.5055 6.36889 13.6123 -12.6772 7.17864 14.0037 -12.6266 8.09612 
14.389 -12.3926 8.97993 14.389 -12.3926 8.97993 14.8681 -12.207 9.82846 
15.2897 -11.8366 10.654 15.6234 -11.2583 11.3838 15.6234 -11.2583 11.3838 
15.6546 -10.4026 11.869 15.5384 -9.4793 12.2448 15.5384 -9.4793 12.2448 
15.2876 -8.59566 12.6326 15.0365 -7.7095 13.0219 14.8181 -6.78078 13.3449 
14.6224 -5.94137 13.8435 14.6224 -5.94137 13.8435 14.4147 -5.09482 14.3335 
14.1916 -4.24966 14.8193 13.972 -3.55666 15.1668 13.972 -3.55666 15.1668 
13.9191 -3.38966 15.2506 13.9191 -3.38966 15.2506 13.567 -2.52118 15.5996 
13.0572 -1.67534 15.7568 12.6654 -1.06807 15.8385 12.6654 -1.06807 15.8385 
12.5403 -0.830104 15.8533 12.5403 -0.830104 15.8533 12.0914 0.0565479 15.886 
11.6097 0.932463 15.8948 11.6097 0.932463 15.8948 11.1627 1.82012 15.8959 
10.7521 2.7253 15.8543 10.3103 3.62066 15.8919 9.92977 4.53661 15.9477 
9.92977 4.53661 15.9477 9.65355 5.48936 16.0139 9.65355 5.48936 16.0139 
9.51918 6.46245 16.1725 9.317 7.43258 16.3218 9.317 7.43258 16.3218 
9.06513 8.37712 16.5308 8.77271 9.31343 16.7268 8.38834 10.2191 16.9055 
7.89908 11.0189 17.1803 7.32032 11.7322 17.5533 6.66314 12.3899 17.9196 
6.66314 12.3899 17.9196 6.01131 13.0121 18.3301 5.36282 13.6142 18.79 
4.73418 14.2485 19.2386 4.73418 14.2485 19.2386 4.17457 14.9574 19.6676 
3.64915 15.7517 19.9422 3.22071 16.5825 20.2815 2.83551 17.4393 20.6278 
2.44668 18.315 20.8896 2.44668 18.315 20.8896 2.10238 19.2256 21.1051 
1.68005 20.1149 21.28 1.0968 20.9239 21.3367 0.417642 21.6543 21.2926 
-0.240072 22.4061 21.2625 -0.240072 22.4061 21.2625 -0.892025 23.1655 21.248 
-1.53932 23.9266 21.2878 29.2566 -22.5695 -23.8214 29.2566 -22.5695 -23.8214 
29.1592 -22.3076 -24.7766 29.0985 -22.058 -25.4435 29.0985 -22.058 -25.4435 
29.1592 -22.3076 -24.7766 29.0747 -21.9598 -25.706 28.835 -21.5714 -26.5958 
28.5363 -21.1704 -27.4618 28.2362 -20.7438 -28.3107 28.2689 -20.3172 -29.2044 
28.2689 -20.3172 -29.2044 28.3783 -19.8721 -30.0894 28.525 -19.4066 -30.9614 
28.525 -19.4066 -30.9614 28.7309 -18.9683 -31.8364 29.0071 -18.4692 -32.6445 
29.3194 -17.9432 -33.4342 29.5664 -17.3779 -34.2213 29.5664 -17.3779 -34.2213 
29.8068 -16.6826 -34.8434 29.9327 -15.8573 -35.386 29.9731 -15.0061 -35.9093 
29.9778 -14.1556 -36.4351 29.9891 -13.2764 -36.9066 29.9806 -12.8482 -37.1261 
29.9806 -12.8482 -37.1261 29.9891 -13.2764 -36.9066 29.9788 -12.388 -37.342 
30.0283 -11.4301 -37.4424 30.3742 -10.5235 -37.6711 30.8048 -9.65329 -37.9106 
31.2603 -8.85208 -37.8355 31.795 -8.02242 -37.6906 31.795 -8.02242 -37.6906 
32.3326 -7.18568 -37.6148 32.3326 -7.18568 -37.6148 32.8726 -6.34899 -37.536 
33.1906 -5.54084 -37.1579 33.2866 -4.62236 -36.7742 33.2866 -4.62236 -36.7742 
33.358 -3.71261 -36.3672 33.4036 -2.80607 -35.9491 33.4405 -1.91471 -35.4987 
33.5552 -1.03317 -35.0408 33.8917 -0.231643 -34.5535 34.3466 0.445299 -33.9836 
34.832 1.11118 -33.4171 34.832 1.11118 -33.4171 35.3163 1.78029 -32.8534 
35.743 2.48504 -32.2867 36.0958 3.22944 -31.7197 36.1667 4.06612 -31.1764 
36.2011 4.85206 -30.5661 36.1883 5.64914 -29.9623 36.1883 5.64914 -29.9623 
36.2768 6.42323 -29.3355 36.5314 7.17468 -28.7373 36.5314 7.17468 -28.7373 
36.8466 7.94993 -28.1955 37.1522 8.70696 -27.6289 37.3728 9.3693 -26.9437 
37.6778 10.0825 -26.3614 27.6574 -22.2755 -22.6642 27.6574 -22.2755 -22.6642 
27.8807 -22.1695 -23.6331 27.8807 -22.1695 -23.6331 28.1215 -22.0107 -24.5843 
28.2316 -21.7246 -25.5322 28.1385 -21.3731 -26.4637 28.1385 -21.3731 -26.4637 
27.9427 -20.9948 -27.3685 27.6792 -20.5081 -28.189 27.3424 -19.9476 -28.9427 
27.3424 -19.9476 -28.9427 26.9967 -19.3786 -29.6889 26.9511 -18.883 -30.5546 
26.9511 -18.883 -30.5546 27.078 -18.3854 -31.3965 27.2995 -17.8076 -32.1623 
27.4305 -17.1378 -32.8922 27.4892 -16.4257 -33.5709 27.4892 -16.4257 -33.5709 
27.4903 -16.4158 -33.5796 27.4976 -15.6416 -34.2111 27.5001 -14.8651 -34.8412 
27.5001 -14.8651 -34.8412 27.3605 -14.0259 -35.3514 27.2662 -13.1233 -35.7483 
27.2649 -12.227 -36.1917 27.2649 -12.227 -36.1917 27.4234 -11.3978 -36.7225 
27.7714 -10.5962 -37.0956 28.2206 -9.75397 -37.3541 28.6787 -8.9036 -37.6128 
29.1208 -8.05885 -37.7036 29.1208 -8.05885 -37.7036 29.5095 -7.15701 -37.6249 
29.6355 -6.17248 -37.5076 29.6835 -5.18112 -37.3856 29.6834 -4.91014 -37.296 
29.6834 -4.91014 -37.296 29.6833 -4.25202 -37.0739 29.6833 -4.25202 -37.0739 
29.8126 -3.32285 -36.7364 30.2088 -2.51427 -36.3111 30.6117 -1.72017 -35.8576 
30.6117 -1.72017 -35.8576 31.0515 -0.946733 -35.4011 31.5158 -0.187268 -34.9455 
31.5158 -0.187268 -34.9455 31.9798 0.558415 -34.468 32.4466 1.2972 -33.9841 
32.8927 1.96848 -33.4044 32.8927 1.96848 -33.4044 33.3455 2.64271 -32.821 
33.7768 3.32823 -32.2344 34.1629 4.03883 -31.6468 34.5449 4.78878 -31.1103 
34.9109 5.53722 -30.5609 35.2349 6.21473 -29.9132 35.3657 6.98111 -29.2861 
35.4084 7.43391 -28.9678 35.4084 7.43391 -28.9678 35.4586 7.83246 -28.7874 
35.4499 8.71214 -28.3119 35.4499 8.71214 -28.3119 35.4776 9.57803 -27.8131 
35.5895 10.4709 -27.3655 35.9135 11.1942 -26.7643 36.3164 11.8695 -26.1466 
20.6163 -19.7169 -18.0012 20.6163 -19.7169 -18.0012 20.2506 -19.3273 -18.8465 
19.8507 -18.9147 -19.665 19.8507 -18.9147 -19.665 19.5141 -18.4262 -20.4622 
19.0681 -17.845 -21.1428 19.0681 -17.845 -21.1428 18.6666 -17.2044 -21.7869 
18.4933 -16.6523 -22.6026 18.4933 -16.6523 -22.6026 18.343 -16.1324 -23.4433 
18.3056 -15.6844 -24.3366 18.3349 -15.1972 -25.2 18.3349 -15.1972 -25.2 
18.1826 -14.5448 -25.9432 17.9598 -13.8905 -26.6651 17.9598 -13.8905 -26.6651 
17.7253 -13.1462 -27.2798 17.4378 -12.4012 -27.8794 17.4378 -12.4012 -27.8794 
17.1089 -11.6761 -28.4832 16.9051 -10.9483 -29.1357 16.9051 -10.9483 -29.1357 
16.7963 -10.2564 -29.8494 16.7487 -9.67162 -30.6549 16.7484 -9.0683 -31.4494 
16.8029 -8.46159 -32.2418 16.8029 -8.46159 -32.2418 16.9161 -7.82219 -32.9983 
17.0925 -7.12517 -33.6755 17.2999 -6.44975 -34.2575 17.2999 -6.44975 -34.2575 
17.3085 -6.40309 -34.331 17.3085 -6.40309 -34.331 17.5089 -5.6751 -34.9883 
17.6536 -4.80159 -35.248 17.6536 -4.80159 -35.248 17.5889 -3.82531 -35.4539 
17.5008 -2.86722 -35.4921 17.4642 -2.31077 -35.4238 17.4642 -2.31077 -35.4238 
17.4365 -1.88997 -35.3722 17.4365 -1.88997 -35.3722 17.4092 -0.883256 -35.3051 
17.6384 0.0221871 -35.0402 17.6384 0.0221871 -35.0402 18.0287 0.90235 -34.7703 
18.4441 1.7419 -34.4439 18.7296 2.59528 -34.0166 18.707 3.52584 -33.6673 
18.6436 4.43077 -33.254 18.6479 5.08059 -32.9925 18.6479 5.08059 -32.9925 
18.6436 4.43077 -33.254 18.6527 5.35962 -32.8989 19.0174 6.22162 -32.5493 
19.0174 6.22162 -32.5493 19.461 7.04625 -32.1984 19.9017 7.85682 -31.8074 
19.9017 7.85682 -31.8074 20.33 8.69781 -31.4841 20.587 9.62227 -31.2061 
20.7783 10.5736 -30.9655 20.9438 11.5377 -30.7699 20.9861 12.5291 -30.6558 
20.9977 13.5234 -30.5502 20.9977 13.5234 -30.5502 21.0152 14.5186 -30.4691 
21.0472 15.5163 -30.4273 21.0472 15.5163 -30.4273 21.1287 16.5115 -30.3721 
21.3052 17.4929 -30.2967 21.6684 18.4129 -30.1528 22.1027 19.2934 -29.9645 
22.5673 20.157 -29.7686 22.9116 20.773 -29.6205 22.9116 20.773 -29.6205 
23.0466 21.0116 -29.5689 23.4518 21.8505 -29.2498 23.4518 21.8505 -29.2498 
23.8329 22.702 -28.8919 24.1402 23.5895 -28.5487 24.1402 23.5895 -28.5487 
24.2008 24.5192 -28.1955 24.1924 25.4519 -27.8362 24.1669 26.3864 -27.4812 
24.1045 27.3119 -27.1106 24.0449 28.2487 -26.7655 24.0449 28.2487 -26.7655 
24.0086 29.1771 -26.396 24.2679 30.0394 -25.9611 24.5163 30.757 -25.3529 
24.5163 30.757 -25.3529 24.8475 31.441 -24.7032 24.9296 31.6071 -24.5446 
24.9296 31.6071 -24.5446 25.1095 32.0038 -23.9534 25.2083 32.6058 -23.1641 
25.2033 33.2478 -22.3976 25.2033 33.2478 -22.3976 25.1369 33.8819 -21.6282 
25.0496 34.5248 -20.8673 24.9811 35.2119 -20.1484 2.37911 2.73023 -26.0979 
2.37911 2.73023 -26.0979 2.38296 3.33782 -26.8916 2.38296 3.33782 -26.8916 
2.40369 3.9153 -27.7077 2.36455 4.65173 -28.3824 2.36455 4.65173 -28.3824 
2.31203 5.4128 -29.0289 2.24936 6.19633 -29.6471 2.26615 6.7809 -30.4583 
2.30127 7.01541 -30.9569 2.30127 7.01541 -30.9569 2.33548 7.20702 -31.3603 
2.33548 7.20702 -31.3603 2.46458 7.62892 -32.2557 2.59783 8.02918 -33.1623 
2.72061 8.51021 -34.0304 3.04796 8.98768 -34.7775 3.04796 8.98768 -34.7775 
3.43823 9.52265 -35.5262 3.85894 10.2157 -35.9243 3.85894 10.2157 -35.9243 
4.46863 10.8739 -35.9608 5.1509 11.6042 -35.9736 5.1509 11.6042 -35.9736 
5.9137 12.1612 -35.8847 6.83062 12.4819 -35.7045 7.75739 12.7709 -35.4743 
8.66653 12.9995 -35.1497 9.57824 13.2197 -34.8035 9.57824 13.2197 -34.8035 
10.4905 13.4388 -34.4575 11.4029 13.6545 -34.1099 12.2522 14.0212 -33.7303 
12.2522 14.0212 -33.7303 13.055 14.4997 -33.3749 13.7542 15.1298 -33.0376 
13.7542 15.1298 -33.0376 14.4386 15.7704 -32.6895 15.115 16.4201 -32.3425 
15.782 17.0871 -32.0134 15.782 17.0871 -32.0134 16.5329 17.6762 -31.7189 
17.2875 18.2643 -31.4278 18.0784 18.8008 -31.1334 18.9657 19.1514 -30.8338 
19.865 19.4977 -30.5692 19.865 19.4977 -30.5692 20.776 19.8084 -30.2981 
21.687 20.1139 -30.0214 22.5281 20.5818 -29.7501 15.6546 -10.4026 11.869 
15.6546 -10.4026 11.869 16.1138 -9.82389 12.5429 16.1138 -9.82389 12.5429 
16.6361 -9.39876 13.2989 17.2527 -8.92336 13.8987 17.9255 -8.49797 14.5039 
18.4838 -7.93756 15.1157 18.4838 -7.93756 15.1157 18.9928 -7.2856 15.6594 
19.3667 -6.52653 16.1857 19.6558 -5.74252 16.735 19.6558 -5.74252 16.735 
19.9083 -4.93343 17.2636 20.238 -4.1322 17.7632 20.5436 -3.68017 18.0503 
20.5436 -3.68017 18.0503 20.7328 -3.39233 18.2188 21.3857 -2.71541 18.5103 
21.3857 -2.71541 18.5103 22.0075 -1.96628 18.6964 22.4919 -1.14295 18.9917 
22.8648 -0.259359 19.259 22.8648 -0.259359 19.259 23.1507 0.643454 19.5803 
23.3573 1.56095 19.9031 23.5211 2.49791 20.209 23.5211 2.49791 20.209 
23.6861 3.43466 20.5176 23.8345 4.30074 20.8325 23.8345 4.30074 20.8325 
23.834 4.3693 20.841 23.8977 5.32721 21.0972 23.9768 6.28399 21.3757 
23.9768 6.28399 21.3757 24.3629 7.20407 21.3094 24.775 8.10978 21.2098 
24.775 8.10978 21.2098 25.0082 9.07496 21.3282 25.1485 10.0531 21.4704 
25.2218 11.0361 21.6067 25.2218 11.0361 21.6067 25.2116 12.0233 21.7545 
25.1788 13.0073 21.9297 25.1256 13.9915 22.0704 25.1256 13.9915 22.0704 
25.0371 14.9824 22.1015 25.0524 15.9777 22.0067 25.0524 15.9777 22.0067 