# vtk DataFile Version 3.0
vtk output
ASCII
DATASET POLYDATA
POINTS 9794 double
-17.4848 14.682 -0.472636 -17.5152 14.6867 -0.366781 -17.8776 14.77 0.531197 
-18.2461 14.8561 1.42598 -18.4726 14.9132 2.38594 -18.4299 14.9054 3.36626 
-18.1151 14.7795 4.1526 -17.7211 14.5596 4.96625 -17.3499 14.3129 5.81781 
-16.9777 14.0655 6.67189 -16.6005 13.8166 7.51648 -16.2162 13.5643 8.36129 
-15.8239 13.3087 9.20935 -15.2514 13.1784 9.99099 -14.5645 13.1329 10.6962 
-13.7258 13.0432 11.2308 -12.8018 13.1085 11.4358 -11.8206 13.037 11.27 
-10.8974 12.8723 10.9239 -10.0082 12.6401 10.5334 -9.16143 12.2797 10.1547 
-8.34785 11.886 9.72688 -7.56048 11.4483 9.30014 -6.79728 10.9621 8.87884 
-6.79728 10.9621 8.87884 -5.95184 10.5183 8.62421 -5.09466 10.0324 8.4714 
-4.32934 9.43112 8.39854 -3.66176 8.77392 8.30325 -3.25779 7.9085 8.10119 
-2.92385 7.03702 7.83878 -2.74498 6.18355 7.40232 -2.54485 5.39275 6.82888 
-2.35203 4.61062 6.25114 -2.07525 3.75226 5.82653 -1.79786 3.06988 5.49626 
-1.79786 3.06988 5.49626 -1.76714 2.897 5.41847 -1.45811 2.02539 5.04654 
-1.1126 1.1898 4.62282 -0.809141 0.550841 3.91123 -0.809141 0.550841 3.91123 
-0.437395 -0.0411327 3.19667 -0.466417 -0.10933 3.1313 -0.466417 -0.10933 3.1313 
-0.0644826 -0.605036 2.46052 -0.0113752 -0.772349 2.24321 -0.0113752 -0.772349 2.24321 
0.364093 -1.10156 1.70552 0.815669 -1.60564 0.973002 0.815669 -1.60564 0.973002 
1.31988 -2.19164 0.344424 1.94853 -2.81121 -0.125697 2.61569 -3.43349 -0.532494 
2.61569 -3.43349 -0.532494 3.28342 -4.03577 -0.968338 3.90311 -4.5944 -1.51698 
4.02731 -4.80006 -1.71353 4.02731 -4.80006 -1.71353 4.42859 -5.13304 -2.16945 
4.9391 -5.64979 -2.85424 5.46614 -6.1765 -3.51762 5.46614 -6.1765 -3.51762 
5.94586 -6.72481 -4.192 6.45372 -7.28524 -4.84258 6.45372 -7.28524 -4.84258 
6.97442 -7.84592 -5.48219 7.50589 -8.42011 -6.09826 8.04844 -9.00335 -6.69664 
8.66543 -9.59997 -7.20569 8.66543 -9.59997 -7.20569 9.29506 -10.1987 -7.69405 
9.36933 -10.231 -7.73503 9.36933 -10.231 -7.73503 9.97748 -10.7989 -8.10706 
10.6578 -11.3876 -8.53771 11.3706 -11.9895 -8.88094 12.0786 -12.6141 -9.19279 
12.0786 -12.6141 -9.19279 12.7707 -13.2336 -9.54589 13.434 -13.8623 -9.93585 
14.0725 -14.4396 -10.441 14.0725 -14.4396 -10.441 14.6115 -14.945 -11.1086 
15.114 -15.4173 -11.8313 15.6427 -15.8702 -12.5461 15.6427 -15.8702 -12.5461 
16.1687 -16.3154 -13.266 16.7085 -16.7626 -13.9736 16.7085 -16.7626 -13.9736 
17.3788 -17.3193 -14.4569 18.0779 -17.891 -14.8762 18.7832 -18.4679 -15.2754 
18.7832 -18.4679 -15.2754 19.5109 -18.9955 -15.7108 20.2273 -19.5116 -16.1705 
20.9348 -20.0205 -16.6504 21.6701 -20.4789 -17.1491 22.4369 -20.8603 -17.6666 
22.4369 -20.8603 -17.6666 23.206 -21.1913 -18.2119 23.9744 -21.4919 -18.7763 
24.6359 -21.7005 -19.4945 25.2852 -21.9022 -20.2238 25.9792 -22.062 -20.9274 
26.6435 -22.1363 -21.6712 27.4857 -22.3098 -22.1781 27.4857 -22.3098 -22.1781 
28.3447 -22.4947 -22.6516 28.3447 -22.4947 -22.6516 29.2286 -22.6715 -23.0881 
30.1225 -22.7905 -23.5202 31.0253 -22.8611 -23.9449 31.9365 -22.9112 -24.3528 
32.8433 -22.9363 -24.7732 33.7302 -22.9425 -25.2334 34.6098 -22.9458 -25.7063 
35.39 -22.9141 -26.3286 35.39 -22.9141 -26.3286 36.1138 -22.8271 -27.0137 
36.8352 -22.7135 -27.6962 37.5846 -22.6059 -28.3471 37.5846 -22.6059 -28.3471 
38.3574 -22.3811 -28.9364 39.183 -22.1702 -29.4581 39.183 -22.1702 -29.4581 
40.0452 -21.9768 -29.9233 40.9231 -21.6742 -30.2228 41.7659 -21.2046 -30.4496 
41.7659 -21.2046 -30.4496 42.6251 -20.7421 -30.6681 43.4902 -20.2807 -30.8648 
44.3627 -19.8208 -31.0298 44.3627 -19.8208 -31.0298 44.982 -19.2021 -31.02 
45.5665 -18.403 -30.8892 45.5665 -18.403 -30.8892 46.1382 -17.6315 -30.6903 
46.6993 -16.9562 -30.4355 46.6993 -16.9562 -30.4355 46.6199 -16.8023 -30.4117 
46.6199 -16.8023 -30.4117 47.0752 -15.9605 -30.1697 47.5287 -15.0971 -30.047 
47.5287 -15.0971 -30.047 47.8706 -14.145 -29.9862 47.9487 -13.1544 -29.9018 
47.9487 -13.1544 -29.9018 48.0332 -12.1732 -29.8001 48.05 -11.1776 -29.6558 
48.05 -11.1776 -29.6558 48.0487 -10.2594 -29.2595 47.9994 -9.41101 -28.7321 
47.9994 -9.41101 -28.7321 47.8243 -8.57866 -28.2069 47.7494 -7.73402 -27.7112 
47.6771 -6.86682 -27.23 47.6771 -6.86682 -27.23 47.6031 -5.99567 -26.7549 
47.5242 -5.1152 -26.2984 47.4722 -4.43972 -26.0547 47.4722 -4.43972 -26.0547 
47.3633 -4.18975 -25.9509 47.0489 -3.24738 -25.8971 47.0489 -3.24738 -25.8971 
46.7551 -2.29962 -25.8298 46.473 -1.34919 -25.7401 46.2655 -0.40085 -25.5203 
46.2655 -0.40085 -25.5203 46.0808 0.508084 -25.1455 45.8641 1.4013 -24.7401 
45.5626 2.23791 -24.2838 45.5626 2.23791 -24.2838 45.2593 3.07461 -23.8318 
44.9156 3.94462 -23.5107 44.5375 4.85453 -23.4318 44.5375 4.85453 -23.4318 
44.1541 5.77129 -23.3572 43.6625 6.616 -23.179 43.6625 6.616 -23.179 
43.249 7.48004 -22.9227 42.8947 8.38144 -22.6366 42.8947 8.38144 -22.6366 
42.4915 9.16988 -22.1774 42.1743 9.99673 -21.7547 42.1743 9.99673 -21.7547 
41.8909 10.8606 -21.3556 41.6125 11.6949 -20.8921 41.6125 11.6949 -20.8921 
41.2732 12.5161 -20.4326 40.8145 13.3604 -20.1582 40.8145 13.3604 -20.1582 
40.39 14.2267 -19.9369 39.9733 15.1126 -19.7615 39.9733 15.1126 -19.7615 
39.5248 15.9801 -19.5899 39.0817 16.8598 -19.4294 38.6292 17.7317 -19.2515 
38.6292 17.7317 -19.2515 38.3546 18.6386 -19.1416 38.1888 19.5816 -18.8964 
38.1119 20.4428 -18.412 38.1119 20.4428 -18.412 38.0454 21.3808 -18.0975 
37.8227 22.3336 -17.9538 37.8227 22.3336 -17.9538 37.5662 23.2871 -17.7997 
37.258 24.2245 -17.612 37.258 24.2245 -17.612 36.8592 25.118 -17.4066 
36.4607 26.0097 -17.2172 35.9347 26.8075 -16.9679 35.9347 26.8075 -16.9679 
35.3095 27.5241 -16.6672 34.7788 28.2008 -16.1589 34.7788 28.2008 -16.1589 
34.3134 28.8677 -15.5809 33.8153 29.522 -15.0109 33.8153 29.522 -15.0109 
33.3551 30.1768 -14.4182 32.8978 30.8548 -13.847 32.8978 30.8548 -13.847 
32.3536 31.643 -13.5945 32.3536 31.643 -13.5945 31.8259 32.461 -13.3852 
31.2944 33.2716 -13.1473 31.2944 33.2716 -13.1473 30.8648 34.0533 -12.7094 
30.489 34.8233 -12.2036 30.489 34.8233 -12.2036 30.0235 35.5366 -11.6821 
29.5119 36.22 -11.1614 29.5119 36.22 -11.1614 28.9835 36.8846 -10.6316 
28.4151 37.4935 -10.0785 27.8372 38.1071 -9.54203 35.39 -22.9141 -26.3286 
36.3468 -23.0009 -26.0528 37.2829 -23.0725 -25.7093 37.2829 -23.0725 -25.7093 
38.1016 -22.9507 -25.2246 38.9349 -22.7576 -24.711 38.9349 -22.7576 -24.711 
39.7667 -22.5644 -24.1906 40.6485 -22.3332 -23.7977 41.3767 -21.8802 -23.4544 
41.3767 -21.8802 -23.4544 42.0918 -21.2784 -23.1266 42.8472 -20.6641 -22.8984 
43.6414 -20.0572 -22.8705 43.6414 -20.0572 -22.8705 44.3619 -19.3831 -22.8562 
45.0107 -18.647 -22.6984 45.5315 -17.859 -22.3764 45.5315 -17.859 -22.3764 
45.9726 -17.1257 -21.8848 46.3301 -16.4686 -21.2418 46.5852 -15.8214 -20.5248 
46.5699 -15.2039 -19.7425 46.5699 -15.2039 -19.7425 46.4137 -14.6681 -18.9138 
46.2982 -14.0621 -18.1351 46.2982 -14.0621 -18.1351 46.1659 -13.4719 -17.3406 
46.1095 -12.6979 -16.7143 46.1095 -12.6979 -16.7143 45.9246 -12.112 -15.9281 
45.6909 -11.5673 -15.1267 45.4853 -11.1154 -14.4163 45.4853 -11.1154 -14.4163 
45.4472 -11.0472 -14.3149 45.1658 -10.5621 -13.4887 44.8373 -10.139 -12.648 
44.8373 -10.139 -12.648 44.5105 -9.69984 -11.8156 44.5105 -9.69984 -11.8156 
44.2022 -9.18077 -11.0225 43.9536 -8.51968 -10.3205 43.9536 -8.51968 -10.3205 
43.6997 -7.85491 -9.62222 43.6885 -7.80909 -9.56922 43.6885 -7.80909 -9.56922 
43.5026 -7.2084 -8.90906 43.3882 -6.65815 -8.33067 43.3882 -6.65815 -8.33067 
43.3507 -6.53108 -8.20322 43.3507 -6.53108 -8.20322 43.1752 -5.85745 -7.49159 
42.9973 -5.20961 -6.76521 42.7938 -4.68589 -5.95045 42.7938 -4.68589 -5.95045 
42.5267 -4.36964 -5.04533 42.2308 -4.03936 -4.1492 42.2308 -4.03936 -4.1492 
41.9032 -3.65929 -3.28768 41.6564 -3.05677 -2.53805 41.4591 -2.333 -1.88463 
41.4591 -2.333 -1.88463 41.1732 -1.62212 -1.24244 40.8712 -0.929363 -0.59477 
40.8712 -0.929363 -0.59477 40.5596 -0.254463 0.0658854 40.2241 0.408673 0.729946 
39.8505 0.968516 1.4598 39.8505 0.968516 1.4598 39.4939 1.52993 2.1959 
39.1409 2.07204 2.9466 38.7822 2.47329 3.77415 38.7822 2.47329 3.77415 
38.4353 2.89265 4.60219 38.0487 3.32433 5.41054 37.9981 3.42831 5.64962 
37.9981 3.42831 5.64962 37.6767 3.727 6.23354 37.2964 4.10582 7.06692 
37.2964 4.10582 7.06692 36.9737 4.65561 7.82912 36.6606 5.25382 8.55696 
36.6606 5.25382 8.55696 36.3682 5.91983 9.2361 36.044 6.6345 9.8581 
36.044 6.6345 9.8581 35.6603 7.32567 10.4666 35.2142 7.88196 11.1579 
34.6832 8.43744 11.8002 34.6832 8.43744 11.8002 34.0561 8.90788 12.4207 
33.4117 9.32128 13.0579 33.4117 9.32128 13.0579 32.7482 9.73911 13.6778 
32.0636 10.1413 14.2826 31.3758 10.5277 14.8912 31.3758 10.5277 14.8912 
30.7144 10.9224 15.5118 30.0971 11.3714 16.1441 30.0971 11.3714 16.1441 
29.5455 11.9747 16.7108 29.0031 12.6282 17.2361 28.5519 13.2941 17.796 
28.5519 13.2941 17.796 28.105 13.9796 18.3562 27.6596 14.6677 18.9145 
-6.79728 10.9621 8.87884 -6.4624 10.3884 8.14728 -6.1073 9.85814 7.3772 
-5.93163 9.34728 6.5363 -5.93163 9.34728 6.5363 -5.74636 8.95038 5.64772 
-5.5538 8.57448 4.74189 -5.34233 8.25032 3.82454 -5.34233 8.25032 3.82454 
-4.97096 7.87135 2.97688 -4.50485 7.44703 2.20058 -4.04932 6.9426 1.47752 
-4.04932 6.9426 1.47752 -3.61514 6.40074 0.758855 -3.12214 5.82053 0.110559 
-3.12214 5.82053 0.110559 -2.70253 5.17165 -0.505382 -2.3267 4.48408 -1.12396 
-2.05041 3.88155 -1.87139 -2.05041 3.88155 -1.87139 -1.81111 3.28639 -2.63809 
-1.59968 2.72881 -3.44082 -1.59968 2.72881 -3.44082 -1.46684 2.2845 -4.3267 
-1.35233 1.88004 -5.23406 -1.24245 1.48506 -6.14616 -1.24245 1.48506 -6.14616 
-1.11076 1.08622 -7.05231 -1.11076 1.08622 -7.05231 -0.869566 0.578437 -7.87716 
-0.601536 0.00422453 -8.64869 -0.601536 0.00422453 -8.64869 -0.288836 -0.599667 -9.38204 
0.0442278 -1.20232 -10.1062 0.0442278 -1.20232 -10.1062 0.38217 -1.80363 -10.8274 
0.775008 -2.39586 -11.5309 0.775008 -2.39586 -11.5309 1.19414 -3.03502 -12.1707 
[...]
POINT_DATA 9794
FIELD FieldData 1
previousPts 3 9794 double
-17.4848 14.682 -0.472636 -17.4848 14.682 -0.472636 -17.5152 14.6867 -0.366781 
-17.8776 14.77 0.531197 -18.2461 14.8561 1.42598 -18.4726 14.9132 2.38594 
-18.4299 14.9054 3.36626 -18.1151 14.7795 4.1526 -17.7211 14.5596 4.96625 
-17.3499 14.3129 5.81781 -16.9777 14.0655 6.67189 -16.6005 13.8166 7.51648 
-16.2162 13.5643 8.36129 -15.8239 13.3087 9.20935 -15.2514 13.1784 9.99099 
-14.5645 13.1329 10.6962 -13.7258 13.0432 11.2308 -12.8018 13.1085 11.4358 
-11.8206 13.037 11.27 -10.8974 12.8723 10.9239 -10.0082 12.6401 10.5334 
-9.16143 12.2797 10.1547 -8.34785 11.886 9.72688 -7.56048 11.4483 9.30014 
-7.56048 11.4483 9.30014 -6.79728 10.9621 8.87884 -5.95184 10.5183 8.62421 
-5.09466 10.0324 8.4714 -4.32934 9.43112 8.39854 -3.66176 8.77392 8.30325 
-3.25779 7.9085 8.10119 -2.92385 7.03702 7.83878 -2.74498 6.18355 7.40232 
-2.54485 5.39275 6.82888 -2.35203 4.61062 6.25114 -2.07525 3.75226 5.82653 
-1.79786 3.06988 5.49626 -1.79786 3.06988 5.49626 -1.76714 2.897 5.41847 
-1.45811 2.02539 5.04654 -1.1126 1.1898 4.62282 -1.1126 1.1898 4.62282 
-0.809141 0.550841 3.91123 -0.437395 -0.0411327 3.19667 -0.466417 -0.10933 3.1313 
-0.466417 -0.10933 3.1313 -0.0644826 -0.605036 2.46052 -0.0113752 -0.772349 2.24321 
-0.0113752 -0.772349 2.24321 0.364093 -1.10156 1.70552 0.364093 -1.10156 1.70552 
0.815669 -1.60564 0.973002 1.31988 -2.19164 0.344424 1.94853 -2.81121 -0.125697 
1.94853 -2.81121 -0.125697 2.6157 -3.43349 -0.532494 3.28342 -4.03577 -0.968338 
3.90311 -4.5944 -1.51698 4.02731 -4.80006 -1.71353 4.02731 -4.80006 -1.71353 
4.42859 -5.13304 -2.16945 4.9391 -5.64979 -2.85424 4.9391 -5.64979 -2.85424 
5.46613 -6.1765 -3.51762 5.94586 -6.72481 -4.192 5.94586 -6.72481 -4.192 
6.45372 -7.28524 -4.84258 6.97442 -7.84593 -5.48219 7.50589 -8.42011 -6.09826 
8.04844 -9.00335 -6.69664 8.04844 -9.00335 -6.69664 8.66543 -9.59997 -7.20569 
9.29506 -10.1987 -7.69405 9.36933 -10.231 -7.73503 9.36933 -10.231 -7.73503 
9.97748 -10.7989 -8.10706 10.6578 -11.3876 -8.53772 11.3706 -11.9895 -8.88094 
11.3706 -11.9895 -8.88094 12.0786 -12.6141 -9.19279 12.7707 -13.2336 -9.54589 
13.434 -13.8623 -9.93585 13.434 -13.8623 -9.93585 14.0725 -14.4396 -10.441 
14.6115 -14.945 -11.1086 15.114 -15.4173 -11.8313 15.114 -15.4173 -11.8313 
15.6427 -15.8702 -12.5461 16.1687 -16.3154 -13.266 16.1687 -16.3154 -13.266 
16.7085 -16.7626 -13.9736 17.3788 -17.3193 -14.4569 18.0779 -17.891 -14.8762 
18.0779 -17.891 -14.8762 18.7832 -18.4679 -15.2754 19.5109 -18.9955 -15.7108 
20.2273 -19.5116 -16.1705 20.9348 -20.0205 -16.6504 21.6701 -20.4789 -17.1491 
21.6701 -20.4789 -17.1491 22.4369 -20.8603 -17.6666 23.206 -21.1913 -18.2119 
23.9744 -21.4919 -18.7763 24.6359 -21.7005 -19.4945 25.2852 -21.9022 -20.2238 
25.9792 -22.062 -20.9274 26.6435 -22.1363 -21.6712 26.6435 -22.1363 -21.6712 
27.4857 -22.3098 -22.1781 27.4857 -22.3098 -22.1781 28.3447 -22.4947 -22.6516 
29.2286 -22.6715 -23.0881 30.1225 -22.7905 -23.5202 31.0253 -22.8611 -23.9449 
31.9365 -22.9112 -24.3528 32.8433 -22.9363 -24.7732 33.7302 -22.9425 -25.2334 
34.6098 -22.9458 -25.7063 34.6098 -22.9458 -25.7063 35.39 -22.9141 -26.3286 
36.1138 -22.8271 -27.0137 36.8352 -22.7135 -27.6962 36.8352 -22.7135 -27.6962 
37.5846 -22.6059 -28.3471 38.3574 -22.3811 -28.9364 38.3574 -22.3811 -28.9364 
39.183 -22.1702 -29.4581 40.0452 -21.9768 -29.9233 40.9231 -21.6742 -30.2228 
40.9231 -21.6742 -30.2228 41.7659 -21.2046 -30.4496 42.6251 -20.7421 -30.6681 
43.4902 -20.2807 -30.8648 43.4902 -20.2807 -30.8648 44.3627 -19.8208 -31.0298 
44.982 -19.2021 -31.02 44.982 -19.2021 -31.02 45.5665 -18.403 -30.8892 
46.1382 -17.6315 -30.6903 46.6993 -16.9562 -30.4355 46.6993 -16.9562 -30.4355 
46.1382 -17.6315 -30.6903 46.6199 -16.8023 -30.4117 47.0752 -15.9605 -30.1697 
47.0752 -15.9605 -30.1697 47.5287 -15.0971 -30.047 47.8706 -14.145 -29.9862 
47.8706 -14.145 -29.9862 47.9487 -13.1544 -29.9018 48.0332 -12.1732 -29.8001 
48.0332 -12.1732 -29.8001 48.05 -11.1776 -29.6558 48.0487 -10.2594 -29.2595 
48.0487 -10.2594 -29.2595 47.9994 -9.41101 -28.7321 47.8243 -8.57866 -28.2069 
47.7494 -7.73402 -27.7112 47.7494 -7.73402 -27.7112 47.6771 -6.86682 -27.23 
47.6031 -5.99567 -26.7549 47.5242 -5.1152 -26.2984 47.4722 -4.43972 -26.0547 
47.4722 -4.43972 -26.0547 47.3633 -4.18975 -25.9509 47.3633 -4.18975 -25.9509 
47.0489 -3.24738 -25.8971 46.7551 -2.29962 -25.8298 46.473 -1.34919 -25.7401 
46.473 -1.34919 -25.7401 46.2655 -0.40085 -25.5203 46.0808 0.508084 -25.1455 
45.8641 1.4013 -24.7401 45.8641 1.4013 -24.7401 45.5626 2.23791 -24.2838 
45.2593 3.07461 -23.8318 44.9156 3.94462 -23.5107 44.9156 3.94462 -23.5107 
44.5375 4.85453 -23.4318 44.1541 5.77129 -23.3572 44.1541 5.77129 -23.3572 
43.6625 6.616 -23.179 43.249 7.48004 -22.9227 43.249 7.48004 -22.9227 
42.8947 8.38144 -22.6366 42.4915 9.16988 -22.1774 42.4915 9.16988 -22.1774 
42.1743 9.99673 -21.7547 41.8909 10.8606 -21.3556 41.8909 10.8606 -21.3556 
41.6125 11.6949 -20.8921 41.2732 12.5161 -20.4326 41.2732 12.5161 -20.4326 
40.8145 13.3604 -20.1582 40.39 14.2267 -19.9369 40.39 14.2267 -19.9369 
39.9733 15.1126 -19.7615 39.5248 15.9801 -19.5899 39.0817 16.8598 -19.4294 
39.0817 16.8598 -19.4294 38.6292 17.7317 -19.2515 38.3546 18.6386 -19.1416 
38.1888 19.5816 -18.8964 38.1888 19.5816 -18.8964 38.1119 20.4428 -18.412 
38.0454 21.3808 -18.0975 38.0454 21.3808 -18.0975 37.8227 22.3336 -17.9538 
37.5662 23.2871 -17.7997 37.5662 23.2871 -17.7997 37.258 24.2245 -17.612 
36.8592 25.118 -17.4066 36.4607 26.0097 -17.2172 36.4607 26.0097 -17.2172 
35.9347 26.8075 -16.9679 35.3095 27.5241 -16.6672 35.3095 27.5241 -16.6672 
34.7788 28.2009 -16.1589 34.3134 28.8677 -15.5809 34.3134 28.8677 -15.5809 
33.8153 29.522 -15.0109 33.3551 30.1768 -14.4182 33.3551 30.1768 -14.4182 
32.8978 30.8548 -13.847 32.8978 30.8548 -13.847 32.3536 31.643 -13.5945 
31.8259 32.461 -13.3852 31.8259 32.461 -13.3852 31.2944 33.2716 -13.1473 
30.8648 34.0533 -12.7094 30.8648 34.0533 -12.7094 30.489 34.8233 -12.2036 
30.0235 35.5366 -11.6821 30.0235 35.5366 -11.6821 29.5119 36.22 -11.1614 
28.9835 36.8846 -10.6316 28.4151 37.4935 -10.0785 35.39 -22.9141 -26.3286 
35.39 -22.9141 -26.3286 36.3468 -23.0009 -26.0528 36.3468 -23.0009 -26.0528 
37.2829 -23.0725 -25.7093 38.1016 -22.9507 -25.2245 38.1016 -22.9507 -25.2245 
38.9349 -22.7576 -24.711 39.7667 -22.5644 -24.1906 40.6485 -22.3332 -23.7977 
40.6485 -22.3332 -23.7977 41.3767 -21.8802 -23.4544 42.0918 -21.2784 -23.1266 
42.8472 -20.6641 -22.8984 42.8472 -20.6641 -22.8984 43.6414 -20.0572 -22.8705 
44.3619 -19.3831 -22.8562 45.0107 -18.647 -22.6984 45.0107 -18.647 -22.6984 
45.5315 -17.859 -22.3764 45.9726 -17.1257 -21.8848 46.3301 -16.4686 -21.2418 
46.5852 -15.8214 -20.5248 46.5852 -15.8214 -20.5248 46.5699 -15.2039 -19.7425 
46.4137 -14.6681 -18.9138 46.4137 -14.6681 -18.9138 46.2982 -14.0621 -18.1351 
46.1659 -13.4719 -17.3406 46.1659 -13.4719 -17.3406 46.1095 -12.6979 -16.7143 
45.9246 -12.112 -15.9281 45.6909 -11.5673 -15.1267 45.4853 -11.1154 -14.4163 
45.4853 -11.1154 -14.4163 45.4472 -11.0472 -14.3149 45.1658 -10.5621 -13.4887 
45.1658 -10.5621 -13.4887 44.8373 -10.139 -12.648 44.8373 -10.139 -12.648 
44.5105 -9.69984 -11.8156 44.2022 -9.18077 -11.0225 44.2022 -9.18077 -11.0225 
43.9536 -8.51968 -10.3205 43.6997 -7.85491 -9.62222 43.6885 -7.80909 -9.56922 
43.6885 -7.80909 -9.56922 43.5026 -7.2084 -8.90906 43.3882 -6.65815 -8.33067 
43.3882 -6.65815 -8.33067 43.5026 -7.2084 -8.90906 43.3507 -6.53108 -8.20322 
43.1752 -5.85745 -7.49159 42.9973 -5.20961 -6.76521 42.9973 -5.20961 -6.76521 
42.7938 -4.68589 -5.95045 42.5267 -4.36964 -5.04533 42.5267 -4.36964 -5.04533 
42.2308 -4.03936 -4.1492 41.9032 -3.65929 -3.28768 41.6564 -3.05677 -2.53805 
41.6564 -3.05677 -2.53805 41.4591 -2.333 -1.88463 41.1732 -1.62212 -1.24244 
41.1732 -1.62212 -1.24244 40.8712 -0.929363 -0.59477 40.5596 -0.254463 0.0658854 
40.2241 0.408673 0.729946 40.2241 0.408673 0.729946 39.8505 0.968516 1.4598 
39.4939 1.52993 2.1959 39.1409 2.07204 2.9466 39.1409 2.07204 2.9466 
38.7822 2.47329 3.77415 38.4353 2.89265 4.60219 38.0487 3.32433 5.41054 
37.9981 3.42831 5.64962 37.9981 3.42831 5.64962 37.6767 3.727 6.23354 
37.6767 3.727 6.23354 37.2964 4.10582 7.06692 36.9737 4.65561 7.82912 
36.9737 4.65561 7.82912 36.6606 5.25382 8.55696 36.3682 5.91983 9.2361 
36.3682 5.91983 9.2361 36.044 6.6345 9.8581 35.6603 7.32567 10.4666 
35.2142 7.88196 11.1579 35.2142 7.88196 11.1579 34.6832 8.43744 11.8002 
34.0561 8.90788 12.4207 34.0561 8.90788 12.4207 33.4117 9.32128 13.0579 
32.7482 9.73911 13.6778 32.0636 10.1413 14.2826 32.0636 10.1413 14.2826 
31.3758 10.5277 14.8912 30.7144 10.9224 15.5118 30.7144 10.9224 15.5118 
30.0971 11.3714 16.1441 29.5455 11.9747 16.7108 29.0031 12.6282 17.2361 
29.0031 12.6282 17.2361 28.5519 13.2941 17.796 28.105 13.9796 18.3562 
-6.79728 10.9621 8.87884 -6.79728 10.9621 8.87884 -6.4624 10.3884 8.14728 
-6.1073 9.85814 7.3772 -6.1073 9.85814 7.3772 -5.93164 9.34728 6.5363 
-5.74636 8.95038 5.64772 -5.5538 8.57448 4.74189 -5.5538 8.57448 4.74189 
-5.34233 8.25032 3.82454 -4.97096 7.87135 2.97688 -4.50485 7.44703 2.20058 
-4.50485 7.44703 2.20058 -4.04932 6.9426 1.47752 -3.61514 6.40074 0.758855 
-3.61514 6.40074 0.758855 -3.12214 5.82053 0.110559 -2.70253 5.17165 -0.505382 
-2.3267 4.48408 -1.12396 -2.3267 4.48408 -1.12396 -2.05041 3.88155 -1.87139 
-1.81111 3.28639 -2.63809 -1.81111 3.28639 -2.63809 -1.59968 2.72881 -3.44082 
-1.46684 2.2845 -4.3267 -1.35233 1.88004 -5.23406 -1.35233 1.88004 -5.23406 
-1.24245 1.48506 -6.14616 -1.24245 1.48506 -6.14616 -1.11076 1.08622 -7.05231 
-0.869566 0.578437 -7.87716 -0.869566 0.578437 -7.87716 -0.601536 0.00422453 -8.64869 
-0.288836 -0.599667 -9.38204 -0.288836 -0.599667 -9.38204 0.0442278 -1.20232 -10.1062 
0.38217 -1.80363 -10.8274 0.38217 -1.80363 -10.8274 0.775008 -2.39586 -11.5309 
1.19414 -3.03502 -12.1707 1.62552 -3.5334 -12.9169 2.03816 -3.83932 -13.7742 
2.25305 -3.85009 -14.7493 2.25305 -3.85009 -14.7493 2.23772 -3.52186 -15.6957 
2.13198 -2.94325 -16.5027 2.13198 -2.94325 -16.5027 1.93322 -2.25531 -17.2014 
1.67008 -1.46476 -17.7542 1.67008 -1.46476 -17.7542 1.37302 -0.613514 -18.1855 
1.20777 0.181042 -18.766 1.20777 0.181042 -18.766 1.01408 1.02739 -19.2616 
0.774848 1.91228 -19.6613 0.774848 1.91228 -19.6613 0.577587 2.83474 -19.9806 
0.367478 3.77531 -20.2454 0.367478 3.77531 -20.2454 0.0997876 4.71679 -20.4485 
-0.198332 5.66911 -20.4381 -0.531666 6.61112 -20.3935 -0.531666 6.61112 -20.3935 
-0.992584 7.48247 -20.2432 -1.49965 8.31943 -20.0772 -2.11186 9.08941 -19.975 
-2.70522 9.88694 -19.8659 -2.70522 9.88694 -19.8659 -3.37676 10.5981 -19.8495 
-4.0654 11.3162 -19.8867 -4.72945 12.0219 -20.05 -5.36062 12.7219 -20.3544 
-5.36062 12.7219 -20.3544 -5.98521 13.4342 -20.6638 -6.56895 14.1579 -21.0198 
-7.1818 14.8684 -21.3448 -7.1818 14.8684 -21.3448 -7.84456 15.569 -21.6111 
-7.84456 15.569 -21.6111 -8.55364 16.2632 -21.7237 -9.29481 16.9251 -21.7707 
-9.29481 16.9251 -21.7707 -10.0676 17.5508 -21.7475 -10.7935 18.2359 -21.671 
-11.4595 18.9736 -21.5606 -11.4595 18.9736 -21.5606 -11.9983 19.8 -21.7028 
-12.4804 20.6591 -21.9207 -12.4804 20.6591 -21.9207 -12.8615 21.5753 -22.0161 
-13.2604 22.4882 -22.0842 -13.8231 23.264 -21.8004 -13.8231 23.264 -21.8004 
-14.2891 24.0903 -21.4913 -14.7314 24.9346 -21.1893 -15.1603 25.7958 -20.9187 
-15.6045 26.6581 -20.6889 -15.9685 27.5602 -20.4614 -15.9685 27.5602 -20.4614 
-16.1603 28.5417 -20.4619 -16.3002 29.5317 -20.4512 -16.3002 29.5317 -20.4512 
-16.4611 30.5176 -20.4134 -16.614 31.5042 -20.3551 -16.8024 32.4785 -20.2325 
-17.0146 33.4369 -20.0408 -17.0146 33.4369 -20.0408 -17.2632 34.3512 -19.7229 
-17.5039 35.2713 -19.413 -17.7164 36.1919 -19.0857 -17.944 37.1026 -18.7411 
-18.2203 37.9766 -18.3415 46.6199 -16.8023 -30.4117 46.6199 -16.8023 -30.4117 
46.9793 -16.2565 -29.6548 47.3039 -15.7932 -28.8302 47.3039 -15.7932 -28.8302 
47.4934 -15.3794 -27.9469 47.5056 -15.3513 -27.8872 47.5056 -15.3513 -27.8872 
47.6751 -14.9602 -27.0575 47.7386 -14.8096 -26.8538 47.7386 -14.8096 -26.8538 
47.6751 -14.9602 -27.0575 47.9182 -14.3837 -26.2773 48.1995 -13.7083 -25.5957 
48.1995 -13.7083 -25.5957 48.4389 -12.9722 -24.9895 48.4277 -12.1864 -24.4549 
48.4277 -12.1864 -24.4549 48.3205 -11.489 -23.7484 48.189 -10.8912 -22.9576 
48.189 -10.8912 -22.9576 48.0483 -10.3365 -22.1375 47.9122 -9.86898 -21.2646 
47.9122 -9.86898 -21.2646 47.784 -9.40253 -20.3894 47.6534 -8.94848 -19.508 
47.4387 -8.41713 -18.6976 47.4387 -8.41713 -18.6976 47.2167 -7.83464 -17.916 
47.0988 -7.05577 -17.3012 47.0988 -7.05577 -17.3012 46.9898 -6.26843 -16.6944 
46.8618 -5.47888 -16.0966 46.6798 -4.64522 -15.5954 46.3777 -3.95745 -14.9391 
46.3777 -3.95745 -14.9391 46.0903 -3.2889 -14.2552 46.0903 -3.2889 -14.2552 
45.8026 -2.68485 -13.5118 45.4845 -2.15192 -12.7279 45.4845 -2.15192 -12.7279 
45.1941 -1.65038 -11.9145 44.9233 -1.17163 -11.0799 45.0483 -0.883954 -10.7406 
45.0483 -0.883954 -10.7406 44.7002 -0.507644 -10.3662 44.7002 -0.507644 -10.3662 
44.4432 0.234404 -9.75067 44.2105 0.988231 -9.13724 43.9629 1.77754 -8.58007 
43.9629 1.77754 -8.58007 43.6636 2.59571 -8.09414 43.4046 3.42972 -7.6102 
43.1321 4.19477 -7.17783 43.1321 4.19477 -7.17783 43.1172 4.26144 -7.1382 
43.1172 4.26144 -7.1382 42.7573 4.91268 -6.4709 42.4651 5.56829 -5.77877 
42.4651 5.56829 -5.77877 42.1653 6.20219 -5.06606 41.8652 6.79508 -4.31874 
47.0489 -3.24738 -25.8971 47.0489 -3.24738 -25.8971 46.4989 -2.92329 -26.6668 
45.9492 -2.65033 -27.4149 45.9492 -2.65033 -27.4149 46.4989 -2.92329 -26.6668 
45.9517 -2.63149 -27.4514 45.4318 -2.39332 -28.2711 45.4318 -2.39332 -28.2711 
44.9346 -2.22225 -29.1217 44.4536 -2.11052 -29.9913 44.4536 -2.11052 -29.9913 
43.8232 -2.11967 -30.7066 43.0975 -2.08856 -31.3908 43.0975 -2.08856 -31.3908 
42.309 -1.93807 -31.9806 41.4752 -1.75734 -32.4996 41.4752 -1.75734 -32.4996 
40.6255 -1.531 -32.9681 39.7062 -1.29443 -33.1959 38.7657 -1.04107 -33.4226 
37.9166 -0.907183 -33.6752 37.9166 -0.907183 -33.6752 37.8155 -0.896621 -33.6956 
36.8534 -0.796793 -33.9454 46.5699 -15.2039 -19.7425 46.5699 -15.2039 -19.7425 
46.1548 -15.4584 -18.8691 45.7348 -15.7448 -18.0079 45.7348 -15.7448 -18.0079 
45.2572 -16.0131 -17.1749 44.7193 -16.3937 -16.4228 44.7193 -16.3937 -16.4228 
44.1555 -16.7813 -15.6939 43.6257 -17.0342 -14.8869 43.6257 -17.0342 -14.8869 
43.0676 -17.2144 -14.0789 42.5246 -17.3541 -13.2509 42.5246 -17.3541 -13.2509 
42.0028 -17.4433 -12.4025 41.5326 -17.3841 -11.5233 41.5326 -17.3841 -11.5233 
41.0362 -17.2836 -10.6625 40.4538 -17.3333 -9.85108 40.4538 -17.3333 -9.85108 
39.7844 -17.5721 -9.14782 39.0855 -17.864 -8.49515 38.3751 -18.1511 -7.85444 
38.3751 -18.1511 -7.85444 37.6194 -18.416 -7.25907 36.8106 -18.5834 -6.70983 
41.7715 12.3021 -19.1318 41.6125 11.6949 -20.8921 41.7715 12.3021 -19.1318 
41.7715 12.3021 -19.1318 41.8023 12.5592 -17.243 41.9176 12.6597 -15.2978 
41.956 12.5208 -13.3585 41.7335 -19.0789 -13.8302 43.0676 -17.2144 -14.0789 
41.7335 -19.0789 -13.8302 41.7335 -19.0789 -13.8302 40.0644 -20.4186 -14.1326 
38.3159 -21.6548 -14.6927 36.3489 -22.4112 -15.4091 39.1852 -22.7652 -25.6685 
37.2829 -23.0725 -25.7093 39.1852 -22.7652 -25.6685 39.1852 -22.7652 -25.6685 
40.9152 -22.212 -25.849 42.5705 -21.4022 -26.1819 43.9583 -20.3783 -26.643 
42.2679 -0.937608 -31.1438 43.8232 -2.11967 -30.7066 42.6947 -1.25699 -31.0278 
42.6947 -1.25699 -31.0278 42.2679 -0.937608 -31.1438 40.6752 0.395227 -31.3594 
40.6752 0.395227 -31.3594 39.1555 1.80712 -31.3342 37.7108 3.25559 -30.977 
45.6614 -3.87129 -13.0204 46.0903 -3.2889 -14.2552 45.6614 -3.87129 -13.0204 
45.1062 -4.58427 -11.9291 45.1062 -4.58427 -11.9291 44.5559 -5.35874 -10.8654 
44.0051 -6.0228 -9.72846 42.957 -20.7988 -24.0895 41.3767 -21.8802 -23.4544 
42.957 -20.7988 -24.0895 44.3709 -19.6726 -24.9114 45.4986 -18.5736 -25.8904 
45.4986 -18.5736 -25.8904 45.5916 -18.485 -25.9701 46.0628 -18.024 -26.3172 
46.0628 -18.024 -26.3172 46.7696 -17.2239 -26.883 -4.69277 8.56941 6.31515 
-5.93163 9.34728 6.5363 -4.69277 8.56941 6.31515 -4.69277 8.56941 6.31515 
-3.72543 7.58904 6.1303 -3.04475 6.41751 5.8173 -2.54039 5.09941 5.3466 
-10.5343 18.9668 -22.6103 -10.0676 17.5508 -21.7475 -10.5343 18.9668 -22.6103 
-10.8128 20.3759 -23.5745 -10.8128 20.3759 -23.5745 -10.8595 21.7325 -24.6212 
-10.5781 23.1162 -25.5769 -10.3883 23.7451 -26.0762 -10.3883 23.7451 -26.0762 
-6.23914 14.6113 -21.9216 -7.84456 15.569 -21.6111 -6.23914 14.6113 -21.9216 
-4.54027 13.8348 -22.3351 -4.54027 13.8348 -22.3351 -2.93795 13.1059 -23.0121 
-1.50856 12.4216 -24.0111 -1.25663 2.34225 -1.82526 -2.05041 3.88155 -1.87139 
-1.25663 2.34225 -1.82526 -0.491784 0.642767 -1.54634 -0.491784 0.642767 -1.54634 
0.392134 -0.991593 -1.35932 1.50601 -2.46217 -1.36078 33.1934 29.8279 -16.4037 
34.7788 28.2008 -16.1589 33.1934 29.8279 -16.4037 33.1934 29.8279 -16.4037 
31.5343 31.3153 -16.92 29.8422 32.6533 -17.6562 28.0732 33.7683 -18.5644 
27.9165 33.8688 -18.6448 27.9165 33.8688 -18.6448 26.4472 34.6018 -19.2525 
26.4472 34.6018 -19.2525 1.23365 1.96866 -21.2246 1.01408 1.02739 -19.2616 
1.23365 1.96866 -21.2246 1.23365 1.96866 -21.2246 1.62393 2.71915 -23.2457 
2.0186 3.28261 -25.3246 2.42286 3.65803 -27.4469 47.2819 -11.2558 -31.443 
47.9487 -13.1544 -29.9018 47.4367 -11.5414 -31.2139 47.4367 -11.5414 -31.2139 
47.2819 -11.2558 -31.443 45.9064 -9.79239 -32.7714 45.2236 -9.09157 -33.7454 
45.2236 -9.09157 -33.7454 44.2642 -8.55942 -34.1978 42.2162 -7.49762 -35.1717 
47.1677 -5.14733 -27.2604 47.6771 -6.86682 -27.23 47.1677 -5.14733 -27.2604 
39.498 -21.5481 -31.0994 39.183 -22.1702 -29.4581 39.498 -21.5481 -31.0994 
39.498 -21.5481 -31.0994 39.6318 -20.6147 -32.5418 39.6196 -19.5292 -33.9578 
39.4272 -18.345 -35.2588 -12.1145 21.4061 -22.8982 -11.9983 19.8 -21.7028 
-12.1145 21.4061 -22.8982 -12.1145 21.4061 -22.8982 -11.953 23.0297 -24.0802 
-11.7101 24.6708 -25.2354 -11.4989 26.2319 -26.2444 -11.4989 26.2319 -26.2444 
-11.3864 26.4015 -26.1952 44.5956 -15.3786 -14.967 45.2572 -16.0131 -17.1749 
44.5956 -15.3786 -14.967 43.8025 -14.4605 -12.8643 43.8025 -14.4605 -12.8643 
43.0554 -13.3729 -10.8037 42.6717 -12.9952 -9.90739 42.6717 -12.9952 -9.90739 
42.1232 -12.4797 -8.73299 31.0033 33.0128 -14.5802 32.3536 31.643 -13.5945 
31.0033 33.0128 -14.5802 29.5486 34.1647 -15.6624 29.5486 34.1647 -15.6624 
27.9823 35.1728 -16.7061 26.3426 36.262 -17.5869 24.9027 37.1473 -18.0919 
24.9027 37.1473 -18.0919 39.824 16.2235 -18.3235 39.9733 15.1126 -19.7615 
39.824 16.2235 -18.3235 39.8752 17.2316 -16.8142 39.8752 17.2316 -16.8142 
40.0377 18.1076 -15.2342 40.3321 18.8387 -13.5965 41.6508 -5.15048 -3.35927 
42.2308 -4.03936 -4.1492 41.6508 -5.15048 -3.35927 41.6508 -5.15048 -3.35927 
40.9568 -6.50315 -2.45759 40.0982 -7.82346 -1.7016 39.1791 -9.13085 -0.984131 
37.5958 21.668 -18.6944 38.1119 20.4428 -18.412 37.5958 21.668 -18.6944 
37.5958 21.668 -18.6944 36.9997 22.8343 -19.0629 36.4012 23.9309 -19.5963 
35.6067 24.8655 -20.1329 -0.310135 -0.688123 -7.92296 -1.11076 1.08622 -7.05231 
-0.310135 -0.688123 -7.92296 0.672247 -2.46424 -8.53593 0.672247 -2.46424 -8.53593 
1.8914 -4.1316 -8.90448 3.31353 -5.69589 -8.99186 45.0462 -2.18779 -11.4943 
45.8026 -2.68485 -13.5118 45.0462 -2.18779 -11.4943 44.3648 -1.99587 -9.40206 
44.3648 -1.99587 -9.40206 43.6239 -1.78022 -7.33742 42.8687 -1.35525 -5.304 
39.5591 -18.1965 -9.53603 41.0362 -17.2836 -10.6625 39.5591 -18.1965 -9.53603 
39.5591 -18.1965 -9.53603 37.9696 -19.0441 -8.61965 36.1667 -19.7558 -7.99209 
34.3135 -20.5175 -7.61557 37.2643 22.4737 -18.7807 38.1119 20.4428 -18.412 
37.2643 22.4737 -18.7807 37.2643 22.4737 -18.7807 36.331 24.4055 -19.4386 
35.0729 26.0478 -19.9667 34.509 26.5594 -20.1695 34.509 26.5594 -20.1695 
33.5664 27.5261 -20.5814 48.042 -12.674 -22.805 48.4389 -12.9722 -24.9895 